% Model:              biconAndDipole_fullFeature.mph
% Version:            COMSOL 5.6.0.401
% Date:               Jan 1 2022, 14:44
% Table:              Table 6 - Point Evaluation 1
% freq (MHz)             abs(emw.Ex) (V/m), Point: (-0.6, 0, 0.4)abs(emw.Ex) (V/m), Point: (-0.5, 0, 0.4)abs(emw.Ex) (V/m), Point: (-0.4, 0, 0.4)abs(emw.Ex) (V/m), Point: (-0.3, 0, 0.4)abs(emw.Ex) (V/m), Point: (-0.2, 0, 0.4)abs(emw.Ex) (V/m), Point: (-0.1, 0, 0.4)abs(emw.Ex) (V/m), Point: (-1.1102E-16, 0, 0.4)abs(emw.Ex) (V/m), Point: (0.1, 0, 0.4)abs(emw.Ex) (V/m), Point: (0.2, 0, 0.4)abs(emw.Ex) (V/m), Point: (0.3, 0, 0.4)abs(emw.Ex) (V/m), Point: (0.4, 0, 0.4)abs(emw.Ex) (V/m), Point: (0.5, 0, 0.4)abs(emw.Ex) (V/m), Point: (0.6, 0, 0.4)abs(emw.Ex) (V/m), Point: (-0.6, 0.4, 2.4493E-17)abs(emw.Ex) (V/m), Point: (-0.5, 0.4, 2.4493E-17)abs(emw.Ex) (V/m), Point: (-0.4, 0.4, 2.4493E-17)abs(emw.Ex) (V/m), Point: (-0.3, 0.4, 2.4493E-17)abs(emw.Ex) (V/m), Point: (-0.2, 0.4, 2.4493E-17)abs(emw.Ex) (V/m), Point: (-0.1, 0.4, 2.4493E-17)abs(emw.Ex) (V/m), Point: (-1.1102E-16, 0.4, 2.4493E-17)abs(emw.Ex) (V/m), Point: (0.1, 0.4, 2.4493E-17)abs(emw.Ex) (V/m), Point: (0.2, 0.4, 2.4493E-17)abs(emw.Ex) (V/m), Point: (0.3, 0.4, 2.4493E-17)abs(emw.Ex) (V/m), Point: (0.4, 0.4, 2.4493E-17)abs(emw.Ex) (V/m), Point: (0.5, 0.4, 2.4493E-17)abs(emw.Ex) (V/m), Point: (0.6, 0.4, 2.4493E-17)abs(emw.Ex) (V/m), Point: (-0.6, 4.8986E-17, -0.4)abs(emw.Ex) (V/m), Point: (-0.5, 4.8986E-17, -0.4)abs(emw.Ex) (V/m), Point: (-0.4, 4.8986E-17, -0.4)abs(emw.Ex) (V/m), Point: (-0.3, 4.8986E-17, -0.4)abs(emw.Ex) (V/m), Point: (-0.2, 4.8986E-17, -0.4)abs(emw.Ex) (V/m), Point: (-0.1, 4.8986E-17, -0.4)abs(emw.Ex) (V/m), Point: (-1.1102E-16, 4.8986E-17, -0.4)abs(emw.Ex) (V/m), Point: (0.1, 4.8986E-17, -0.4)abs(emw.Ex) (V/m), Point: (0.2, 4.8986E-17, -0.4)abs(emw.Ex) (V/m), Point: (0.3, 4.8986E-17, -0.4)abs(emw.Ex) (V/m), Point: (0.4, 4.8986E-17, -0.4)abs(emw.Ex) (V/m), Point: (0.5, 4.8986E-17, -0.4)abs(emw.Ex) (V/m), Point: (0.6, 4.8986E-17, -0.4)abs(emw.Ex) (V/m), Point: (-0.6, -0.4, -7.3479E-17)abs(emw.Ex) (V/m), Point: (-0.5, -0.4, -7.3479E-17)abs(emw.Ex) (V/m), Point: (-0.4, -0.4, -7.3479E-17)abs(emw.Ex) (V/m), Point: (-0.3, -0.4, -7.3479E-17)abs(emw.Ex) (V/m), Point: (-0.2, -0.4, -7.3479E-17)abs(emw.Ex) (V/m), Point: (-0.1, -0.4, -7.3479E-17)abs(emw.Ex) (V/m), Point: (-1.1102E-16, -0.4, -7.3479E-17)abs(emw.Ex) (V/m), Point: (0.1, -0.4, -7.3479E-17)abs(emw.Ex) (V/m), Point: (0.2, -0.4, -7.3479E-17)abs(emw.Ex) (V/m), Point: (0.3, -0.4, -7.3479E-17)abs(emw.Ex) (V/m), Point: (0.4, -0.4, -7.3479E-17)abs(emw.Ex) (V/m), Point: (0.5, -0.4, -7.3479E-17)abs(emw.Ex) (V/m), Point: (0.6, -0.4, -7.3479E-17)
30                       4.069365597344433E-5     4.066059453772381E-5     9.607170895350274E-5     1.498701149827268E-4     2.0376938788368624E-4    2.4453590315646253E-4    2.670577129887663E-4     2.754412050127818E-4     2.6889549728517046E-4    2.5517660583074313E-4    2.4269612195408174E-4    2.3436640727529242E-4    2.2998374840341336E-4    2.0466944172071348E-5    2.1408543424649923E-5    2.8355837544393586E-5    3.8377612557811856E-5    4.720446668012618E-5     5.447771237680136E-5     5.978438125232703E-5     6.104289990662401E-5     5.982392638779029E-5     5.931873428825162E-5     7.128704953269919E-5     1.0778194191900451E-4    1.2784008621263867E-4    1.4748755738303199E-5    1.530723500927521E-5     2.4613815713211397E-5    3.44345359160305E-5      4.1039812150230854E-5    4.3790711621898086E-5    4.413943837454353E-5     4.2252691725801484E-5    3.9443628760577934E-5    4.057546296477354E-5     5.798619778805515E-5     8.586681155337637E-5     1.0612966858424464E-4    1.3007871159804167E-5    3.340837118373229E-5     4.071117753246074E-5     6.328650523334597E-5     9.296846381653278E-5     1.1620137374861758E-4    1.3448147846117475E-4    1.4014796691492033E-4    1.397542494965694E-4     1.354407310908556E-4     1.3641029832999098E-4    1.544085541775995E-4     1.636677286269507E-4
35                       3.409605967181859E-5     1.0125090263603786E-4    1.4909466153246347E-4    1.9887278720898677E-4    2.516329848591624E-4     2.9177230976216523E-4    3.1267638768008043E-4    3.1837520743660205E-4    3.085005439888846E-4     2.917533871864838E-4     2.782563759694397E-4     2.7128167331173493E-4    2.687921644863091E-4     5.6563487138432633E-5    5.344399314260859E-5     5.377046164709487E-5     6.243020511728717E-5     7.181756768841702E-5     7.987851208841107E-5     8.48627638738429E-5      8.464564932743428E-5     8.122199865066965E-5     7.859921850528912E-5     9.087620557753628E-5     1.3355152727191738E-4    1.5762396329641517E-4    4.45221738809799E-5      4.235938890751322E-5     4.729180488674161E-5     5.586414820499515E-5     6.317999530632786E-5     6.644138575943344E-5     6.666241255316198E-5     6.335682109080918E-5     5.8562309493511256E-5    5.789423951904911E-5     7.663065162445477E-5     1.0885753439247257E-4    1.3289416933173013E-4    5.4459748859885196E-5    7.591621963903299E-5     7.531920868204825E-5     9.545499822909938E-5     1.2507833236287475E-4    1.4874768158456607E-4    1.6639498007741874E-4    1.7023540077350444E-4    1.6709896944930687E-4    1.602619493432203E-4     1.609044497431754E-4     1.837167266252874E-4     1.9596453967527658E-4
40                       1.264561368214663E-4     1.8629114750803343E-4    2.2388257501693547E-4    2.686503790324051E-4     3.204277238260096E-4     3.60156893248932E-4      3.790473311000377E-4     3.808842079478806E-4     3.6611182326697284E-4    3.447064037961333E-4     3.2940770403063396E-4    3.2428759102891177E-4    3.246758908165016E-4     1.1294775601044286E-4    1.0179757753082628E-4    9.256584130646859E-5     9.962305734876185E-5     1.100477803692067E-4     1.1947778846394148E-4    1.2408142026325077E-4    1.216684856566317E-4     1.1485551587191082E-4    1.0886106915143195E-4    1.2105001219671888E-4    1.7208849075803055E-4    2.0188749206829276E-4    9.298117878634868E-5     8.425283479769787E-5     8.272763640399028E-5     8.967762463002468E-5     9.825834750372998E-5     1.0243190126301852E-4    1.0254695789927005E-4    9.706856981891938E-5     8.920236677074094E-5     8.562836055645347E-5     1.058494645831058E-4     1.4393916194770003E-4    1.73306396990649E-4      1.2368561586731207E-4    1.372758050576746E-4     1.2582629274776686E-4    1.4299348765005971E-4    1.7297015793377952E-4    1.9769210427756054E-4    2.1458555658836878E-4    2.158784368494937E-4     2.0852524887623184E-4    1.9767230228476425E-4    1.9730584628685458E-4    2.266273106627646E-4     2.4323874654970485E-4
42                       1.7479452255862537E-4    2.297579217554395E-4     2.622993109585794E-4     3.047714338344302E-4     3.5629257844646686E-4    3.9599707427778714E-4    4.1395899887608316E-4    4.137882267249577E-4     3.9642290314879035E-4    3.7247273463785407E-4    3.5609950200291495E-4    3.519051369590404E-4     3.538522796568366E-4     1.4320990405641587E-4    1.2774226847932105E-4    1.136134493091461E-4     1.1998952740541176E-4    1.3105529261187834E-4    1.4128487180543203E-4    1.4571325679342242E-4    1.4212338561578886E-4    1.3346159852730514E-4    1.2559681690165283E-4    1.3755997249077055E-4    1.9276782397449396E-4    2.2553646699948542E-4    1.1946777079560337E-4    1.0715048023938036E-4    1.0227253516018987E-4    1.0845740396561702E-4    1.1779843505820906E-4    1.2251795189389004E-4    1.226106269679437E-4     1.1595424071900755E-4    1.0640831477492614E-4    1.0119740199073158E-4    1.220403892422934E-4     1.630441390673335E-4     1.9515538846289545E-4    1.599810100515872E-4     1.692735549099664E-4     1.5240787122954198E-4    1.682570189733212E-4     1.9857950626817004E-4    2.2399967865090957E-4    2.405595500639624E-4     2.405550467391406E-4     2.3091452479909356E-4    2.1783647884971447E-4    2.1675113355593953E-4    2.4931145587434804E-4    2.682254290393868E-4
44                       2.310860181859317E-4     2.8028817456621734E-4    3.071193165227699E-4     3.4713435056840013E-4    3.985407502024935E-4     4.3835269919598955E-4    4.553070248697868E-4     4.527775130599642E-4     4.323303312156024E-4     4.05299323987278E-4      3.875595001958853E-4     3.844266418577202E-4     3.8825167150441695E-4    1.7938996142705303E-4    1.5881684696250875E-4    1.3899754285660106E-4    1.4468903683873091E-4    1.5658497747782655E-4    1.6781909250177549E-4    1.7205581606933137E-4    1.6705384704669593E-4    1.561578463522468E-4     1.4601029372434811E-4    1.575870515380977E-4     2.17573069406145E-4      2.5382999009148456E-4    1.514911279751706E-4     1.348982844890219E-4     1.2608702932532734E-4    1.3143299916483617E-4    1.4174282546346913E-4    1.4715877626819923E-4    1.4725619947566883E-4    1.3917993313248016E-4    1.276010368482947E-4     1.2037473345787745E-4    1.4184087409337796E-4    1.8617646346243412E-4    2.2149652900720407E-4    2.0271326278427032E-4    2.069435814147839E-4     1.8388625424278524E-4    1.9835663039298985E-4    2.2920390073230315E-4    2.555478908387945E-4     2.717512149068439E-4     2.7024356972714684E-4    2.5785532467514346E-4    2.4206877201141791E-4    2.4000370136918436E-4    2.762706366320309E-4     2.9791965731057837E-4
46                       2.970523863561474E-4     3.394920435154982E-4     3.598527373302508E-4     3.9725946646994894E-4    4.487611158884619E-4     4.888616875096554E-4     5.047192950310396E-4     4.993881403441308E-4     4.752401710824783E-4     4.4444119914637366E-4    4.249534540036596E-4     4.23042835121833E-4      4.291467369324445E-4     2.2299518851426884E-4    1.9635634172471652E-4    1.6988607499907E-4       1.7490608408004567E-4    1.878801199349346E-4     2.00379848099514E-4      2.044035690225985E-4     1.9769304963328571E-4    1.840710689025713E-4     1.7111953795180318E-4    1.8209660484107038E-4    2.47599637495752E-4      2.87987791783477E-4      1.9055126166010004E-4    1.6883852445752752E-4    1.553748728966296E-4     1.5979151321304677E-4    1.7134171945277333E-4    1.7765088758952123E-4    1.7779056285805047E-4    1.6799572565311897E-4    1.539407895143546E-4     1.442145320246785E-4     1.6628912480923317E-4    2.1445776958053126E-4    2.53561103461176E-4      2.534017086722456E-4     2.5165607037557636E-4    2.2148645801771207E-4    2.3453427011169042E-4    2.661422016153428E-4     2.937013311344857E-4     3.095285290760023E-4     3.0625920874138184E-4    2.905416587076909E-4     2.7143854877619374E-4    2.6805710783949426E-4    3.0859799495073153E-4    3.335236814056424E-4
48                       3.75202854491049E-4      4.09679608821639E-4      4.2267099136964484E-4    4.573378144178007E-4     5.092318494993908E-4     5.498612651423723E-4     5.645046939265915E-4     5.557863817277728E-4     5.27122915550107E-4      4.916492627147007E-4     4.6990650142481006E-4    4.694239312489092E-4     4.78321549265131E-4      2.7624310476193694E-4    2.4231922701912936E-4    2.0797481285993232E-4    2.1235054166042567E-4    2.2672689575458258E-4    2.4083127863426225E-4    2.44610613288619E-4      2.3580328349010065E-4    2.188133440796115E-4     2.0237769259008107E-4    2.1247049804136756E-4    2.844245003675572E-4     3.297701261538183E-4     2.3894333581385088E-4    2.1100287747067667E-4    1.9192895475674573E-4    1.9527950021155084E-4    2.0841523475019974E-4    2.1587617990333777E-4    2.161167476050845E-4     2.0422145794108922E-4    1.871227059398766E-4     1.7426800667845184E-4    1.969185317360189E-4     2.4955138650392477E-4    2.931864845951064E-4     3.1425364641789156E-4    3.05390139756861E-4      2.669637402463077E-4     2.7855914403141787E-4    3.1124195621274215E-4    3.403943987486146E-4     3.5581871378613587E-4    3.5045429688345634E-4    3.3065905780912366E-4    3.0745360929432096E-4    3.0231439647142647E-4    3.4784872176839505E-4    3.7675320505559627E-4
50                       4.451803556138464E-4     4.74061081792122E-4      4.8216156459528957E-4    5.158992295606773E-4     5.6932308032392E-4       6.113227133218275E-4     6.253538129852673E-4     6.136903719853576E-4     5.805448295526635E-4     5.397821101156841E-4     5.141589423151594E-4     5.129032454126106E-4     5.229092269175225E-4     3.1493636545117657E-4    2.7643490737903664E-4    2.3697319849697493E-4    2.4269789555143143E-4    2.5977417513870367E-4    2.7646872504552377E-4    2.808715428092205E-4     2.707209280527723E-4     2.509905689615965E-4     2.3141719260314807E-4    2.4015056668340697E-4    3.165054692154093E-4     3.6560248178649495E-4    2.577791208825576E-4     2.290644923510967E-4     2.0901385862741653E-4    2.154766624328584E-4     2.3307169903398183E-4    2.4363291691903986E-4    2.4548204356027035E-4    2.326565292782707E-4     2.1339379773784267E-4    1.9804605169303484E-4    2.2123338173528364E-4    2.7755608447789114E-4    3.2460661366739713E-4    3.634040760110833E-4     3.4972752749909804E-4    3.054984294740086E-4     3.173613957437285E-4     3.523077512657012E-4     3.8395250164300433E-4    3.996524716171025E-4     3.9297190531411603E-4    3.695473783052981E-4     3.4238168352472955E-4    3.3468119217170317E-4    3.828438010592181E-4     4.145605170566346E-4
50.5                     4.920511077516598E-4     5.151231622902866E-4     5.179581339756508E-4     5.493328715895956E-4     6.023373266225673E-4     6.440311230765608E-4     6.56892643172039E-4      6.428267404482726E-4     6.069675277036675E-4     5.638638528428289E-4     5.380912457896142E-4     5.392849886931826E-4     5.520708960044699E-4     3.567989428143599E-4     3.122569837701155E-4     2.6660528680978865E-4    2.70538542193521E-4      2.873494210676152E-4     3.040966356464842E-4     3.0754524278472895E-4    2.954814263254555E-4     2.73186749439207E-4      2.511900476801643E-4     2.59465771292153E-4      3.40521864699043E-4      3.9306154333868003E-4    3.10530406130949E-4      2.7398898966634336E-4    2.4717286706968394E-4    2.496007765048989E-4     2.6568320336636E-4       2.752568610619757E-4     2.75900792589135E-4      2.608346275191768E-4     2.3901481451655805E-4    2.2109676687629895E-4    2.440270976853368E-4     3.027565738720234E-4     3.52761156499363E-4      4.0550905029932603E-4    3.862814954945536E-4     3.360998799946336E-4     3.4609644523588066E-4    3.807664628653452E-4     4.125903702488317E-4     4.2748167666907023E-4    4.189534572564064E-4     3.9279216180439447E-4    3.6307832986485583E-4    3.547855907184186E-4     4.0727053028451974E-4    4.419842851928136E-4
51                       5.210305228849783E-4     5.412356983054809E-4     5.416062780223385E-4     5.722262344011799E-4     6.255199919600895E-4     6.674484554970717E-4     6.798157961442139E-4     6.643255169476473E-4     6.265933750176651E-4     5.815237736715307E-4     5.547537262569305E-4     5.564367539398285E-4     5.70233174091119E-4      3.779921465554854E-4     3.306236042223652E-4     2.8197415112971177E-4    2.856905456727786E-4     3.0304275480740294E-4    3.203977433914775E-4     3.237036444706712E-4     3.107691734165051E-4     2.8708896504406193E-4    2.636544847582117E-4     2.7144509947899854E-4    3.5478490906562656E-4    4.0914394645543957E-4    3.308961311958033E-4     2.9171172051319885E-4    2.6250326150009087E-4    2.6436112458389844E-4    2.809923511664799E-4     2.9099474618855185E-4    2.9168092657579564E-4    2.75772007027112E-4      2.527398226098801E-4     2.335213395945916E-4     2.5648080588632703E-4    3.1670408778491287E-4    3.6835605566820065E-4    4.287388334628338E-4     4.068147502299561E-4     3.5365027870403593E-4    3.6321296983524414E-4    3.983441363056693E-4     4.3080230846740785E-4    4.455241308602605E-4     4.361602007221723E-4     4.0837120194042026E-4    3.7699467422768905E-4    3.6789574218361494E-4    4.221573881620127E-4     4.5835930726549455E-4
51.5                     5.511882714967847E-4     5.685172032924645E-4     5.664505246325511E-4     5.96373016513817E-4      6.50000177033868E-4      6.921652317773675E-4     7.039813546410797E-4     6.869368439118054E-4     6.471649620761072E-4     5.999408904432899E-4     5.7202539759691E-4       5.741087782828093E-4     5.888418802579168E-4     3.998214567087037E-4     3.4959268096926234E-4    2.979120739250783E-4     3.0146418334272776E-4    3.1941370733526393E-4    3.374192674727262E-4     3.405766002200717E-4     3.2672849787384917E-4    3.015834953786205E-4     2.766217387435143E-4     2.838439059624399E-4     3.694551266104575E-4     4.2563669818664404E-4    3.513660855446168E-4     3.0961109957442374E-4    2.7805463255380845E-4    2.7943560172849746E-4    2.967244934409697E-4     3.072349788817289E-4     3.0801229534862276E-4    2.912503733681389E-4     2.66964508512458E-4      2.463706154570211E-4     2.6928375803975726E-4    3.309627779876914E-4     3.842470747924707E-4     4.5272527281658986E-4    4.2806273255930244E-4    3.718717825886173E-4     3.8103826869562206E-4    4.166796140917546E-4     4.4981300144895724E-4    4.6436273013853016E-4    4.5411787608749354E-4    4.2460952456477026E-4    3.9146707205212495E-4    3.8146500751183343E-4    4.374695633076058E-4     4.751533649935461E-4
52                       5.834942627959287E-4     5.978483689058935E-4     5.933089518776248E-4     6.22566921264463E-4      6.765525339163051E-4     7.189176928404565E-4     7.300577751343719E-4     7.112211508546677E-4     6.691278149180629E-4     6.194539387121655E-4     5.901975281948026E-4     5.925974603251095E-4     6.081809411946068E-4     4.2318477428009756E-4    3.6992758599852443E-4    3.150288234256369E-4     3.1841330813635533E-4    3.3699636684827257E-4    3.5568208592513134E-4    3.5864974585439013E-4    3.437938373960378E-4     3.1703886144443424E-4    2.903961446272767E-4     2.969315525121665E-4     3.8485198741352184E-4    4.4288755694021486E-4    3.7314100207790015E-4    3.28669310171256E-4      2.9459159365513804E-4    2.954586296426946E-4     3.1346324791283977E-4    3.2453673479654576E-4    3.2543561848792456E-4    3.077702890961621E-4     2.821454278362004E-4     2.6004854929222756E-4    2.828036037357523E-4     3.4589998089837505E-4    4.008290252559638E-4     4.7830566589955066E-4    4.5074576382476213E-4    3.913574211699757E-4     4.0011640527055876E-4    4.3630085411957024E-4    4.7013957077791084E-4    4.844818856373582E-4     4.7325701718153304E-4    4.4187231392898524E-4    4.06792700096408E-4      3.95752076423214E-4      4.535112621043449E-4     4.926917344740553E-4
52.5                     6.1906482132385E-4       6.303162169547271E-4     6.23271489382808E-4      6.519077085899E-4        7.062526346002756E-4     7.487085077755906E-4     7.589257551480582E-4     7.378735396685515E-4     6.929748619483129E-4     6.403573574529919E-4     6.094380081691365E-4     6.119901139325529E-4     6.282178597230554E-4     4.4885584541367034E-4    3.923048285014097E-4     3.3387839426074706E-4    3.3705113841548783E-4    3.5628960010753715E-4    3.75668232214175E-4      3.783577807090728E-4     3.623373796548583E-4     3.3374135247336454E-4    3.0517730686964743E-4    3.10827671904012E-4      4.0107102256038024E-4    4.609594952593579E-4     3.9698538770333437E-4    3.495181769201323E-4     3.125819785960928E-4     3.1281005696550166E-4    3.315723418170298E-4     3.432678580997967E-4     3.443243880795357E-4     3.2568159484778163E-4    2.98597066308132E-4      2.748064078653891E-4     2.9719879796512457E-4    3.615969563330034E-4     4.1814634648342446E-4    5.062462166082431E-4     4.755407585259006E-4     4.1267711959273976E-4    4.2097809097836673E-4    4.5772341749012797E-4    4.922786201574623E-4     5.063386445441362E-4     4.939592885774946E-4     4.6045297121920887E-4    4.231702887586036E-4     4.108741103647642E-4     4.7036958876939294E-4    5.110205935996867E-4
53                       6.605983445344246E-4     6.685907601692564E-4     6.590569881440702E-4     6.871520307277845E-4     7.417870992416245E-4     7.840192798735793E-4     7.927353203028994E-4     7.685499875589687E-4     7.198241413415119E-4     6.632396271225363E-4     6.299847985139169E-4     6.322712826180778E-4     6.485693941520439E-4     4.785446805984195E-4     4.182284322239245E-4     3.5569340867268805E-4    3.5851346491696E-4       3.783904549263234E-4     3.9842388101956396E-4    4.006226095459695E-4     3.8312589479114385E-4    3.522421830947753E-4     3.2129969533201515E-4    3.256469147912257E-4     4.181101751292521E-4     4.797201372477162E-4     4.244031864801285E-4     3.733964601599875E-4     3.329020293920817E-4     3.321720351897157E-4     3.5170786804593807E-4    3.6410438705425184E-4    3.6537770710497826E-4    3.4563955944076597E-4    3.168996403175253E-4     2.910700315727526E-4     3.126328668665343E-4     3.779698779144968E-4     4.3597265414973733E-4    5.382693287283533E-4     5.03976886615012E-4      4.3711918703788656E-4    4.448170881324668E-4     4.820964494929135E-4     5.173214961958825E-4     5.309232191764271E-4     5.170188732610104E-4     4.8092422095011045E-4    4.409340856969348E-4     4.2694488040164336E-4    4.8802945592146146E-4    5.299748227685416E-4
53.5                     7.189296964704174E-4     7.234256497043993E-4     7.116384790372829E-4     7.394260638208056E-4     7.939637617043396E-4     8.347887178723331E-4     8.400417376359716E-4     8.097630736100732E-4     7.53978485164384E-4      6.902248609388302E-4     6.524978368095925E-4     6.530088098610357E-4     6.672059906635313E-4     5.189533201520965E-4     4.535968264023723E-4     3.852605367300032E-4     3.8718692841554673E-4    4.075089924507719E-4     4.279415227768881E-4     4.2892450863668465E-4    4.0900589920533047E-4    3.7452528637880127E-4    3.398628357853745E-4     3.415703048312735E-4     4.3559342171722946E-4    4.981913079846838E-4     4.6112514216071267E-4    4.049960328049132E-4     3.587734561323961E-4     3.5599107821194175E-4    3.7620169918572136E-4    3.894574276584408E-4     3.9111784932350266E-4    3.699901321937661E-4     3.3910810026137637E-4    3.102759286267547E-4     3.294328340580452E-4     3.942667171187715E-4     4.529114461389465E-4     5.811391762422435E-4     5.420618287163277E-4     4.6971063635221195E-4    4.7625813885830736E-4    5.138542801807025E-4     5.494480595183704E-4     5.619724973695301E-4     5.453838389861017E-4     5.05354159810583E-4      4.611818930960477E-4     4.441377858025832E-4     5.060684235365662E-4     5.484549979407331E-4
54                       9.68045845609992E-4      9.666048665443697E-4     9.552329264009203E-4     9.844438352474474E-4     0.0010329571215527647    0.001057163913455269     0.0010350316673807352    9.635148106187601E-4     8.626495437411392E-4     7.540446516798214E-4     6.857076713551194E-4     6.63930392644793E-4      6.464908901699022E-4     6.777860096660205E-4     5.925813549229839E-4     4.978182921460467E-4     4.913276589025291E-4     5.089333594960399E-4     5.259827892821159E-4     5.170247502273231E-4     4.8393869438343644E-4    4.3116399298606775E-4    3.7765231582276255E-4    3.601238592221394E-4     4.439917620737808E-4     4.958271116725727E-4     5.986249228688253E-4     5.184844024436295E-4     4.401756402465443E-4     4.217754416112082E-4     4.40819213878323E-4      4.5635049346139404E-4    4.60228706027607E-4      4.3473217855182286E-4    3.967050039784366E-4     3.541716760677146E-4     3.5101482445065783E-4    3.9485980186193466E-4    4.4166143913077237E-4    7.428098953359498E-4     6.851168867155471E-4     5.894452132054191E-4     5.874893503479858E-4     6.220167415702954E-4     6.536411496526081E-4     6.576717006117752E-4     6.249121352163035E-4     5.658215922002833E-4     5.007061078791626E-4     4.6387732374690674E-4    5.142441912975113E-4     5.440062578452255E-4
54.5                     6.423188109777655E-4     6.39668671187049E-4      6.17696632815001E-4      6.412745735404814E-4     7.015945399539231E-4     7.561921396340085E-4     7.806456450206497E-4     7.764655455733131E-4     7.478373394157647E-4     7.101170369858568E-4     6.900854229059805E-4     7.068795952779876E-4     7.463272703785086E-4     4.829918468531514E-4     4.211272457322813E-4     3.599214382752464E-4     3.6727015270176627E-4    3.92008997840795E-4      4.177072435044676E-4     4.2605571916102495E-4    4.1307225333533454E-4    3.8738222588027377E-4    3.61440552658152E-4      3.744642873821592E-4     4.8153744408793963E-4    5.573334320575622E-4     4.3577060998393514E-4    3.873296042298613E-4     3.5573792938182076E-4    3.6333229528805736E-4    3.87408069271322E-4      4.0115753535672E-4       4.0163979684195236E-4    3.807274706629818E-4     3.5062141659784516E-4    3.269278523189998E-4     3.6158464542935967E-4    4.451369827949453E-4     5.170785259334903E-4     5.481650699499741E-4     5.124502730790207E-4     4.460632690209719E-4     4.5762851787692517E-4    4.997640856471001E-4     5.412980612905629E-4     5.600014761617736E-4     5.529238526051488E-4     5.212364700017683E-4     4.8635591174184663E-4    4.7972759668229455E-4    5.538859948623965E-4     6.097406125040152E-4
55                       7.344885215092323E-4     7.281864605935482E-4     7.048797795746177E-4     7.290804703939634E-4     7.888128031776877E-4     8.397739119794469E-4     8.568583372023305E-4     8.405608321791222E-4     7.982796050233091E-4     7.469367625704482E-4     7.18410573006327E-4      7.309894328859099E-4     7.647267548879367E-4     5.453633853214309E-4     4.7612388559901996E-4    4.062707333732606E-4     4.1194539540743204E-4    4.3688230724023345E-4    4.6254730636460307E-4    4.681925375848418E-4     4.5078013308874035E-4    4.186958027819556E-4     3.862307669911826E-4     3.9416672770718937E-4    5.022981852309366E-4     5.781922856558413E-4     4.919832547740701E-4     4.3554185695172856E-4    3.9423350393426115E-4    3.976772245631633E-4     4.2230092074675365E-4    4.3728418646570683E-4    4.3852094443096445E-4    4.1556667936030735E-4    3.8223677340298043E-4    3.53511280261967E-4      3.828985935350176E-4     4.63748805178189E-4      5.352391881315669E-4     6.136397982250697E-4     5.708921207241172E-4     4.962806110835629E-4     5.058251584338241E-4     5.479499475925134E-4     5.893270290061022E-4     6.057053188608471E-4     5.935276648666797E-4     5.550567814218827E-4     5.129584245448987E-4     5.007683750308712E-4     5.750617761727237E-4     6.302115863284089E-4
55.5                     7.902296250269931E-4     7.798824254173565E-4     7.537624156899823E-4     7.77670854536261E-4      8.379726878254968E-4     8.886273873228971E-4     9.035582688046266E-4     8.82742652101717E-4      8.349659297719555E-4     7.779103251976577E-4     7.459909316357195E-4     7.581052609544185E-4     7.918174775157389E-4     5.862139562069737E-4     5.119756966600032E-4     4.3673498492917276E-4    4.4207090339758507E-4    4.67934739762182E-4      4.945133459187332E-4     4.994374559757231E-4     4.7992838312964413E-4    4.4459531137817313E-4    4.0874683351481325E-4    4.1474275314088197E-4    5.25727104386854E-4      6.038787672976937E-4     5.301202330205902E-4     4.6890919192584175E-4    4.227477915649484E-4     4.2489125643908123E-4    4.506307943620896E-4     4.6665163834055853E-4    4.682713469391584E-4     4.438274669304694E-4     4.0821715119583737E-4    3.7659339713403035E-4    4.046153911283938E-4     4.865109964780548E-4     5.598655700653629E-4     6.570132746924585E-4     6.095365231128206E-4     5.297674483369281E-4     5.386794439695328E-4     5.816159166142078E-4     6.239410391480906E-4     6.396698325961205E-4     6.253589072418898E-4     5.832692289129694E-4     5.373619731587556E-4     5.227179935331402E-4     5.99037255496216E-4      6.559037257687965E-4
56                       8.404632925979145E-4     8.258582383508208E-4     7.965656477257597E-4     8.200531113833751E-4     8.812549028087644E-4     9.323408686166699E-4     9.461654624860398E-4     9.222685913997499E-4     8.705026576818698E-4     8.091743270200293E-4     7.748157964409902E-4     7.872929332328659E-4     8.222671385466201E-4     6.243751754055851E-4     5.454497295864807E-4     4.653457809102428E-4     4.706609324174323E-4     4.976778591540829E-4     5.254343486304989E-4     5.300363689353698E-4     5.088320588447848E-4     4.707638671697611E-4     4.3204220136840973E-4    4.3669225200222006E-4    5.510840963386077E-4     6.321028060220301E-4     5.662955449254666E-4     5.008198941543203E-4     4.5066921328173803E-4    4.520887548946406E-4     4.791420047660604E-4     4.962249111185193E-4     4.981762294098721E-4     4.722930172693314E-4     4.3449213440591514E-4    4.002811584266881E-4     4.2772213180827204E-4    5.11546919967877E-4      5.873824641487022E-4     6.976088968028067E-4     6.457129907578018E-4     5.612732609673054E-4     5.698726588975673E-4     6.138626247110841E-4     6.574411957606914E-4     6.728664311030349E-4     6.569669200126309E-4     6.117648703052344E-4     5.626026404098593E-4     5.460670941884694E-4     6.249469150175281E-4     6.841758300111746E-4