% Model:              biconAndDipole_fullFeature.mph
% Version:            COMSOL 5.6.0.401
% Date:               Jan 1 2022, 14:45
% Table:              Table 11 - Ex complex
% freq (MHz)                                      (emw.Ex) (V/m), Point: (-0.6, 0, 0.4)             (emw.Ex) (V/m), Point: (-0.5, 0, 0.4)             (emw.Ex) (V/m), Point: (-0.4, 0, 0.4)             (emw.Ex) (V/m), Point: (-0.3, 0, 0.4)             (emw.Ex) (V/m), Point: (-0.2, 0, 0.4)             (emw.Ex) (V/m), Point: (-0.1, 0, 0.4)             (emw.Ex) (V/m), Point: (-1.1102E-16, 0, 0.4)      (emw.Ex) (V/m), Point: (0.1, 0, 0.4)              (emw.Ex) (V/m), Point: (0.2, 0, 0.4)              (emw.Ex) (V/m), Point: (0.3, 0, 0.4)              (emw.Ex) (V/m), Point: (0.4, 0, 0.4)              (emw.Ex) (V/m), Point: (0.5, 0, 0.4)              (emw.Ex) (V/m), Point: (0.6, 0, 0.4)              (emw.Ex) (V/m), Point: (-0.6, 0.4, 2.4493E-17)    (emw.Ex) (V/m), Point: (-0.5, 0.4, 2.4493E-17)    (emw.Ex) (V/m), Point: (-0.4, 0.4, 2.4493E-17)    (emw.Ex) (V/m), Point: (-0.3, 0.4, 2.4493E-17)    (emw.Ex) (V/m), Point: (-0.2, 0.4, 2.4493E-17)    (emw.Ex) (V/m), Point: (-0.1, 0.4, 2.4493E-17)    (emw.Ex) (V/m), Point: (-1.1102E-16, 0.4, 2.4493E-17)(emw.Ex) (V/m), Point: (0.1, 0.4, 2.4493E-17)     (emw.Ex) (V/m), Point: (0.2, 0.4, 2.4493E-17)     (emw.Ex) (V/m), Point: (0.3, 0.4, 2.4493E-17)     (emw.Ex) (V/m), Point: (0.4, 0.4, 2.4493E-17)     (emw.Ex) (V/m), Point: (0.5, 0.4, 2.4493E-17)     (emw.Ex) (V/m), Point: (0.6, 0.4, 2.4493E-17)     (emw.Ex) (V/m), Point: (-0.6, 4.8986E-17, -0.4)   (emw.Ex) (V/m), Point: (-0.5, 4.8986E-17, -0.4)   (emw.Ex) (V/m), Point: (-0.4, 4.8986E-17, -0.4)   (emw.Ex) (V/m), Point: (-0.3, 4.8986E-17, -0.4)   (emw.Ex) (V/m), Point: (-0.2, 4.8986E-17, -0.4)   (emw.Ex) (V/m), Point: (-0.1, 4.8986E-17, -0.4)   (emw.Ex) (V/m), Point: (-1.1102E-16, 4.8986E-17, -0.4)(emw.Ex) (V/m), Point: (0.1, 4.8986E-17, -0.4)    (emw.Ex) (V/m), Point: (0.2, 4.8986E-17, -0.4)    (emw.Ex) (V/m), Point: (0.3, 4.8986E-17, -0.4)    (emw.Ex) (V/m), Point: (0.4, 4.8986E-17, -0.4)    (emw.Ex) (V/m), Point: (0.5, 4.8986E-17, -0.4)    (emw.Ex) (V/m), Point: (0.6, 4.8986E-17, -0.4)    (emw.Ex) (V/m), Point: (-0.6, -0.4, -7.3479E-17)  (emw.Ex) (V/m), Point: (-0.5, -0.4, -7.3479E-17)  (emw.Ex) (V/m), Point: (-0.4, -0.4, -7.3479E-17)  (emw.Ex) (V/m), Point: (-0.3, -0.4, -7.3479E-17)  (emw.Ex) (V/m), Point: (-0.2, -0.4, -7.3479E-17)  (emw.Ex) (V/m), Point: (-0.1, -0.4, -7.3479E-17)  (emw.Ex) (V/m), Point: (-1.1102E-16, -0.4, -7.3479E-17)(emw.Ex) (V/m), Point: (0.1, -0.4, -7.3479E-17)   (emw.Ex) (V/m), Point: (0.2, -0.4, -7.3479E-17)   (emw.Ex) (V/m), Point: (0.3, -0.4, -7.3479E-17)   (emw.Ex) (V/m), Point: (0.4, -0.4, -7.3479E-17)   (emw.Ex) (V/m), Point: (0.5, -0.4, -7.3479E-17)   (emw.Ex) (V/m), Point: (0.6, -0.4, -7.3479E-17)
30                                                3.914022883486142E-5+1.113625265696338E-5i        -4.0308774286308E-5+5.337289920610512E-6i         -9.598840998134026E-5-3.999801307649607E-6i       -1.4939137412038506E-4-1.1969490522110748E-5i     -2.0306462853738417E-4-1.6932810619219793E-5i     -2.4373031439277418E-4-1.9832845951760806E-5i     -2.662456091212727E-4-2.0810999265598394E-5i      -2.7477245852966774E-4-1.918211282563231E-5i      -2.684086991941556E-4-1.6172775183634724E-5i      -2.5495703696132744E-4-1.0583452517905939E-5i     -2.4268782052429527E-4-2.0073317408867137E-6i     -2.3424659242694818E-4+7.493116540630015E-6i      -2.29548039365865E-4+1.4149987737515168E-5i       -1.4404347290287572E-5+1.453996502346104E-5i      -2.0028252930651716E-5+7.562725441992613E-6i      -2.7667357682808507E-5-6.210542785906712E-6i      -3.5319665403863735E-5-1.5012074520086472E-5i     -4.3048667990603395E-5-1.936682366290202E-5i      -4.965650519470859E-5-2.2406531138428705E-5i      -5.510436332752735E-5-2.3187957736537518E-5i      -5.6946682595591656E-5-2.1984334658275563E-5i     -5.6717458360367815E-5-1.9027140762387155E-5i     -5.7504991070256675E-5-1.4556381403697078E-5i     -7.102696299532444E-5-6.083909823322571E-6i       -1.0749038582298863E-4+7.92237082297365E-6i       -1.2696121668866756E-4+1.4964528050964075E-5i     -9.060842751580538E-6+1.1637307440265637E-5i      -1.435841814460459E-5+5.305400268959017E-6i       -2.4132336849525705E-5-4.8446095967534975E-6i     -3.1865218504039177E-5-1.3051632596814618E-5i     -3.648373122788481E-5-1.879371003867247E-5i       -3.784873982993382E-5-2.2024970320938484E-5i      -3.743215451007743E-5-2.339067824484395E-5i       -3.6078964893753285E-5-2.1990867428797144E-5i     -3.4546958458631896E-5-1.9034377086205185E-5i     -3.837316753483013E-5-1.3185909454776645E-5i      -5.782999022204442E-5-4.253394507178826E-6i       -8.568367367305702E-5+5.605121964072387E-6i       -1.054429687929752E-4+1.205350098209069E-5i       -2.333615702463114E-6+1.2796833587387257E-5i      -3.264761138978621E-5+7.08891639755582E-6i        -4.0320988016380577E-5-5.6229797672079535E-6i     -6.167221457361628E-5-1.4202805857863374E-5i      -9.110810609233633E-5-1.8505357836949613E-5i      -1.142017791471965E-4-2.146422373813845E-5i       -1.3272369387683268E-4-2.167231258523677E-5i      -1.3849274874505894E-4-2.147582770054699E-5i      -1.385795520923395E-4-1.8081979820692357E-5i      -1.3477820371131193E-4-1.3380113705703892E-5i     -1.363080964891054E-4-5.279424399862758E-6i       -1.541800773485982E-4+8.39674651260582E-6i        -1.6299210246481743E-4+1.485597280569791E-5i
35                                                -2.8016680521742356E-5+1.9432109964870952E-5i     -1.0074198942822783E-4+1.0138878175382666E-5i     -1.4902976582086718E-4-4.3985221219553985E-6i     -1.9817430820168882E-4-1.665319972416664E-5i      -2.5046790483676854E-4-2.418651929920671E-5i      -2.903732120965661E-4-2.8539068672112815E-5i      -3.1122901318122873E-4-3.005037049526202E-5i      -3.1716358683156644E-4-2.7749448614969224E-5i     -3.0761306023361945E-4-2.3383558650157218E-5i     -2.913625884157816E-4-1.5095728085859264E-5i      -2.782481940636554E-4-2.1338387850475137E-6i      -2.7099830021042905E-4+1.2396271934458761E-5i     -2.6783619328952265E-4+2.2649530975551965E-5i     -5.120543039886887E-5+2.4029814292379154E-5i      -5.178016903962119E-5+1.32315719873131E-5i        -5.3182786212584884E-5-7.92803862302597E-6i       -5.870672651469173E-5-2.1237955949566793E-5i      -6.627355392693991E-5-2.7669099706592316E-5i      -7.315659422638723E-5-3.2073188407985884E-5i      -7.809243399427168E-5-3.3215364594686215E-5i      -7.856493652409841E-5-3.1502963337238035E-5i      -7.651829103829161E-5-2.723901983164378E-5i       -7.58260816008606E-5-2.069402084423938E-5i        -9.052601922263848E-5-7.970231105377392E-6i       -1.3288118253423727E-4+1.3364197131306195E-5i     -1.5576441295043407E-4+2.4140452843231506E-5i     -3.9996084879360554E-5+1.9558557242577858E-5i     -4.1216703155679393E-5+9.772472030891802E-6i      -4.6935490396594464E-5-5.7943550699648115E-6i     -5.281154231648892E-5-1.8213842341015326E-5i      -5.725095548747413E-5-2.6721525081455703E-5i      -5.8533079695204195E-5-3.143781676625652E-5i      -5.768874149854918E-5-3.340488514755796E-5i       -5.503207701630134E-5-3.139358657440528E-5i       -5.190618800314529E-5-2.7116263389263913E-5i      -5.4857707631576545E-5-1.8503374905608337E-5i     -7.646302046467005E-5-5.065892794759957E-6i       -1.0840565414197852E-4+9.908427930710463E-6i      -1.3141655134057728E-4+1.9762344904387753E-5i     -5.002368068794998E-5+2.1528948332693513E-5i      -7.486629694950913E-5+1.25821296031244E-5i        -7.499777384817417E-5-6.951051309554279E-6i       -9.33384768332009E-5-1.9989633047542028E-5i       -1.2225292790948462E-4-2.6435030626729343E-5i     -1.45530002637111E-4-3.0771595818642885E-5i       -1.6346379418880698E-4-3.109465202191426E-5i      -1.6740898924903454E-4-3.0892102471866755E-5i     -1.6506311167867202E-4-2.600451410764372E-5i      -1.5911829798744408E-4-1.9111767392574088E-5i     -1.6075528137209934E-4-6.9268649569069555E-6i     -1.831863481587872E-4+1.3949820434621392E-5i      -1.9450652656902392E-4+2.386025842686194E-5i
40                                                -1.217577799691304E-4+3.4149634797435714E-5i      -1.8529680589005136E-4+1.9222002153898824E-5i     -2.2385477145830243E-4-3.5282703361462615E-6i     -2.6771381094134656E-4-2.2412978059952118E-5i     -3.186407623057526E-4-3.37933542804842E-5i        -3.5790052070636623E-4-4.02517705552752E-5i       -3.766521000970396E-4-4.2544972752973743E-5i      -3.7885010546785555E-4-3.931128910477338E-5i      -3.646208571892013E-4-3.3007539115772015E-5i      -3.440834376643847E-4-2.0714553896292505E-5i      -3.2940615308529067E-4-1.01083345996376E-6i       -3.23580161126352E-4+2.1408433403189923E-5i       -3.22517668448757E-4+3.737362192598583E-5i        -1.0543396583329514E-4+4.0507708358509806E-5i     -9.901744756683036E-5+2.3628200703705444E-5i      -9.211055972739288E-5-9.169501812024198E-6i       -9.51869556735202E-5-2.9397228187738968E-5i       -1.0295492539530909E-4-3.886897607392682E-5i      -1.1060287620081497E-4-4.518789342668617E-5i      -1.1490391919500294E-4-4.683255500369048E-5i      -1.1327078904440256E-4-4.4417887739473266E-5i     -1.0827670309241909E-4-3.831377159245591E-5i      -1.0499483170191723E-4-2.8754437791042367E-5i     -1.2067400728163305E-4-9.533594254957742E-6i      -1.705051899945895E-4+2.329010168045012E-5i       -1.9789039074438763E-4+3.9974400616626556E-5i     -8.669485056725817E-5+3.36080718521565E-5i        -8.223445353274336E-5+1.8331252647302724E-5i      -8.252797041007381E-5-5.7442079510408165E-6i      -8.622684825413525E-5-2.4637512038392624E-5i      -9.092882875365463E-5-3.723776249524547E-5i       -9.245986719907079E-5-4.4084774626700397E-5i      -9.120081029235957E-5-4.6885933673242605E-5i      -8.651279746421894E-5-4.402093958112958E-5i       -8.076299895041483E-5-3.787347670913089E-5i       -8.18378501922222E-5-2.5194888519328506E-5i       -1.0573854130770004E-4-4.844588181670696E-6i      -1.4279401566076098E-4+1.812047001820216E-5i      -1.7006669781750543E-4+3.3353043809069786E-5i     -1.1807952456555117E-4+3.68151796253893E-5i       -1.3538808244060874E-4+2.268730453993171E-5i      -1.2559795134645647E-4-7.576975928421555E-6i      -1.403291222705001E-4-2.747498777286011E-5i       -1.6894616558201067E-4-3.70927037403917E-5i       -1.92875160597229E-4-4.337442239711091E-5i        -2.1006083243278666E-4-4.3833865606226696E-5i     -2.1141357666619126E-4-4.367835960506427E-5i      -2.052724272378604E-4-3.6688009414136054E-5i      -1.958735869601422E-4-2.660595839143605E-5i       -1.9713632749185085E-4-8.177124311004456E-6i      -2.2535293615575882E-4+2.3999835503930162E-5i     -2.4002975962645617E-4+3.938022748457934E-5i
42                                                -1.6941746234985433E-4+4.302148960035537E-5i      -2.2840128671878848E-4+2.493100147568174E-5i      -2.622886328617672E-4-2.3667701304994934E-6i      -3.037556402867297E-4-2.486237871751939E-5i       -3.542304056599634E-4-3.827820740329322E-5i       -3.9333739820825994E-4-4.5818926300427625E-5i     -4.1110618396751484E-4-4.851554652023264E-5i      -4.1135408534850827E-4-4.481643719972831E-5i      -3.9464306721975713E-4-3.752289482832399E-5i      -3.717546624451924E-4-2.311728787860527E-5i       -3.5609941484517744E-4+2.491458332533209E-7i      -3.5086599036587683E-4+2.7023734433520193E-5i     -3.508265073081529E-4+4.617572509774596E-5i       -1.3407676696543957E-4+5.032392254130285E-5i      -1.2415791305134746E-4+3.0048290849514016E-5i     -1.1324079697412284E-4-9.194442048727057E-6i      -1.1531257764261816E-4-3.31737264169888E-5i       -1.233660874006515E-4-4.4230059925800164E-5i      -1.3156077491456561E-4-5.150900411536189E-5i      -1.3557466319139981E-4-5.340284548490241E-5i      -1.3279546531946732E-4-5.064011383755348E-5i      -1.2613612150885677E-4-4.360822321726145E-5i      -1.213228067828472E-4-3.248595035025495E-5i       -1.3721398253761308E-4-9.750334754723214E-6i      -1.9050961719159135E-4+2.941971647339266E-5i      -2.2006146497363486E-4+4.939280899349268E-5i      -1.1180206890756424E-4+4.210517363530377E-5i      -1.0448198343143192E-4+2.3764270528754402E-5i     -1.0214966310670159E-4-5.011763689524942E-6i      -1.0493393612464455E-4-2.742038519696713E-5i      -1.0998977448890307E-4-4.217488363995026E-5i      -1.1180045680933537E-4-5.0112936388695984E-5i     -1.1040638710155602E-4-5.332724943829009E-5i      -1.0460306150590436E-4-5.00358417967914E-5i       -9.735891622239748E-5-4.294148210343877E-5i       -9.720815597638859E-5-2.813340685633065E-5i       -1.2197386513237059E-4-4.02899876901868E-6i       -1.6136510964576869E-4+2.333865191516068E-5i      -1.906785040451639E-4+4.15612047611957E-5i        -1.5323593120598558E-4+4.59638223449759E-5i       -1.6678201746009658E-4+2.8936050936460662E-5i     -1.5223470994887088E-4-7.263077825812253E-6i      -1.653978522466588E-4-3.088648419585807E-5i       -1.940505392362764E-4-4.2168809940767036E-5i      -2.1847799015245408E-4-4.942897788397951E-5i      -2.3531835287794826E-4-4.994166522839873E-5i      -2.3533657222354128E-4-4.983400732174828E-5i      -2.271026478878299E-4-4.178402907245246E-5i       -2.1575440622745269E-4-3.0046093108446358E-5i     -2.1659451156524982E-4-8.23841353633053E-6i       -2.47477681927563E-4+3.018275961450406E-5i        -2.637837026098162E-4+4.8611099769694194E-5i
44                                                -2.2457582596058757E-4+5.446509152795623E-5i      -2.7839943531338037E-4+3.24840763891058E-5i       -3.0711910888119785E-4-3.571294335240166E-7i      -3.460667004679536E-4-2.720470863230432E-5i       -3.962117471869623E-4-4.302302828742996E-5i       -4.352799242255146E-4-5.181193355434609E-5i       -4.5197571698733227E-4-5.4976705517551366E-5i     -4.499245586792565E-4-5.0748082033140754E-5i      -4.3025431877793306E-4-4.231709420469719E-5i      -4.0450144857815805E-4-2.5418893026965225E-5i     -3.8755233246600014E-4+2.3570728133220303E-6i     -3.8288114492277556E-4+3.4436489841858516E-5i     -3.839711221606179E-4+5.749380638546676E-5i       -1.680020493055424E-4+6.289729477439926E-5i       -1.5409031926949323E-4+3.845730602289466E-5i      -1.3872806313424432E-4-8.651093525894178E-6i      -1.3984086501072339E-4-3.7140945792646004E-5i     -1.4837094367557263E-4-5.004915828014999E-5i      -1.5732340105943519E-4-5.8417422805286286E-5i     -1.6103394756521606E-4-6.059101892893723E-5i      -1.5686935119885818E-4-5.7436873761984746E-5i     -1.4815528730688436E-4-4.934859491805688E-5i      -1.41398609242432E-4-3.64065815173086E-5i         -1.5730359970819255E-4-9.447556896668406E-6i      -2.1432491768089607E-4+3.745490878227187E-5i      -2.4627772164467743E-4+6.145687668072564E-5i      -1.4188159977423416E-4+5.309588967795483E-5i      -1.312880010251875E-4+3.100012814314569E-5i       -1.2603830447582173E-4-3.504963472850171E-6i      -1.279291327840241E-4-3.0145816535488797E-5i      -1.3357022921489133E-4-4.7434401417630005E-5i     -1.358254763888688E-4-5.663166425676328E-5i       -1.343383323724416E-4-6.0312525559865086E-5i      -1.2717961246985377E-4-5.6536713370866036E-5i     -1.1808258508057799E-4-4.835832612330505E-5i      -1.163012811049545E-4-3.1049774047509486E-5i      -1.4182013692564353E-4-2.4253506891209104E-6i     -1.8369496780282655E-4+3.029578108083023E-5i      -2.152625567388176E-4+5.217991978248463E-5i       -1.94323576414318E-4+5.771494224369755E-5i        -2.0358599585488046E-4+3.71266505431596E-5i       -1.8377801332515036E-4-6.308432269836321E-6i      -1.9534862918031606E-4-3.44131646064781E-5i       -2.2419562672548708E-4-4.765237736010186E-5i      -2.4933139569100686E-4-5.602302772013494E-5i      -2.65795951445246E-4-5.657945739101858E-5i        -2.6426071979337496E-4-5.654961496914583E-5i      -2.534814763066153E-4-4.7291750155206465E-5i      -2.397220579661394E-4-3.362477223112044E-5i       -2.3987818488643934E-4-7.760997777080719E-6i      -2.7360706706016453E-4+3.827058295613338E-5i      -2.9172535765607934E-4+6.043540280733677E-5i
46                                                -2.888326432946388E-4+6.93961411557862E-5i        -3.3680928861035126E-4+4.259519592768699E-5i      -3.598406489423086E-4+2.9495648581985004E-6i      -3.9618700193681984E-4-2.9170930672551883E-5i     -4.462050104189532E-4-4.782915230776498E-5i       -4.8540237909263176E-4-5.805411170624287E-5i      -5.009266137561444E-4-6.175835496054035E-5i       -4.961321672440702E-4-5.6933183136648524E-5i      -4.728908170797446E-4-4.719634871634426E-5i       -4.43598724049427E-4-2.7352358589103196E-5i       -4.249143643854E-4+5.763766875224695E-6i          -4.20711772914782E-4+4.4349120383827945E-5i       -4.2302350273257586E-4+7.223598795356186E-5i      -2.0846020233319923E-4+7.919089684879146E-5i      -1.899890145461655E-4+4.9598258913903116E-5i      -1.6973441016612128E-4-7.17694114149903E-6i       -1.7000361391384172E-4-4.1120670038916534E-5i     -1.79279519124278E-4-5.6194247831366544E-5i       -1.8927156147293208E-4-6.579026935635994E-5i      -1.9266389460445584E-4-6.827475920879778E-5i      -1.8681161441500422E-4-6.468355736173258E-5i      -1.7553736515780877E-4-5.539667716018038E-5i      -1.662979264527999E-4-4.03347979583109E-5i        -1.8190846689963272E-4-8.275455568738345E-6i      -2.4287898875584765E-4+4.811836768807318E-5i      -2.7747592019327185E-4+7.709787240397985E-5i      -1.7820035619677313E-4+6.748641620058873E-5i      -1.638480965897667E-4+4.074614809899957E-5i       -1.5537287253631157E-4-7.88420864058149E-7i       -1.564404643191325E-4-3.255316910117254E-5i       -1.6299319858330776E-4-5.283182791287168E-5i      -1.6592253993454894E-4-6.347872559379817E-5i      -1.6440495669190852E-4-6.767935029618763E-5i      -1.5559002964359302E-4-6.335855516995208E-5i      -1.4417956840181488E-4-5.394458945778723E-5i      -1.402225847860203E-4-3.36965571390368E-5i        -1.662886333469479E-4+4.042887891798475E-7i       -2.1075375108307472E-4+3.968616053323399E-5i      -2.4479637393802603E-4+6.609060822267665E-5i      -2.426638476296306E-4+7.298412849104291E-5i       -2.4703861113107027E-4+4.7986481089040876E-5i     -2.2144408132729413E-4-4.332427765406896E-6i      -2.3145831400437863E-4-3.785990933789763E-5i      -2.607303417496349E-4-5.339813078919837E-5i       -2.868600717047467E-4-6.302198958868566E-5i       -3.029230084044174E-4-6.360472695618528E-5i       -2.9956279916382167E-4-6.36932672739681E-5i       -2.856546119785723E-4-5.306503651169594E-5i       -2.6888445850816627E-4-3.714880529029605E-5i      -2.6798100796818854E-4-6.386895304286779E-6i      -3.0468511188875826E-4+4.8986784758203816E-5i     -3.24802819377658E-4+7.577053901548371E-5i
48                                                -3.644448728285124E-4+8.920267197366193E-5i       -4.057845149319662E-4+5.635875553700651E-5i       -4.2259008968368884E-4+8.269404242761113E-6i      -4.563330494722922E-4-3.0298918392729067E-5i      -5.06535868265634E-4-5.233059052743946E-5i        -5.460999384965443E-4-6.420489138718924E-5i       -5.603294210776998E-4-6.853093710058715E-5i       -5.522000269858116E-4-6.303675365148944E-5i       -5.24571165452245E-4-5.18040584714993E-5i         -4.908248820311244E-4-2.8459316700188494E-5i      -4.697733563354884E-4+1.1185426169587093E-5i      -4.658468505650708E-4+5.784063491858661E-5i       -4.694350577402845E-4+9.177271411356928E-5i       -2.5725278559735005E-4+1.0065414661561798E-4i     -2.335475574791083E-4+6.460763251111242E-5i       -2.0793269811221287E-4-4.185192934526809E-6i      -2.075743309677063E-4-4.478448020001257E-5i       -2.1797136657408138E-4-6.239846642616137E-5i      -2.2938313991109966E-4-7.336947521373273E-5i      -2.3244066429432735E-4-7.619507671658392E-5i      -2.2450361769090326E-4-7.212013691341364E-5i      -2.0999896145713258E-4-6.147939276073076E-5i      -1.975497187742991E-4-4.394131393439082E-5i       -2.1239500084801712E-4-5.663581262556844E-6i      -2.774692787404241E-4+6.251476437293342E-5i       -3.149582701654909E-4+9.772217843389954E-5i       -2.2267422590448245E-4+8.666087264556151E-5i      -2.0394889448349283E-4+5.410233580786043E-5i      -1.918905193071196E-4+3.840868920037052E-6i       -1.9226345396342504E-4-3.418841138349397E-5i      -2.0017831881711742E-4-5.801336700738335E-5i      -2.0409883952992127E-4-7.032914582303486E-5i      -2.0264717831521058E-4-7.510372638080642E-5i      -1.917870627030352E-4-7.017212027098872E-5i       -1.7746054926131972E-4-5.935200530843288E-5i      -1.7058675067101883E-4-3.5630024518439304E-5i     -1.9685055495314178E-4+5.1736984556107354E-6i     -2.4394706449777995E-4+5.2590153345918696E-5i     -2.8070001142998087E-4+8.465115671061555E-5i      -3.0012988224777305E-4+9.315260634506748E-5i      -2.988995931605652E-4+6.262723584163441E-5i       -2.6696276128483447E-4-7.229754315026336E-7i      -2.755442620189343E-4-4.087244049426319E-5i       -3.0557473650510915E-4-5.912390140178181E-5i      -3.3308718962631853E-4-7.015176980142245E-5i      -3.487183980524721E-4-7.072790071914829E-5i       -3.431878216701525E-4-7.099530450229341E-5i       -3.2538561392181787E-4-5.8818489983499824E-5i     -3.048045921586373E-4-4.027260194116785E-5i       -3.022936457476891E-4-3.5420410010999364E-6i      -3.420164001711644E-4+6.343118515260662E-5i       -3.643178174525415E-4+9.599742395648354E-5i
50                                                -4.2992951025314134E-4+1.1552560425275763E-4i     -4.679043862339917E-4+7.615375639394646E-5i       -4.817657703334294E-4+1.9532457807837482E-5i      -5.152832290226592E-4-2.5203351945369602E-5i      -5.671056891854739E-4-5.019867610789421E-5i       -6.080215730711928E-4-6.344467277237284E-5i       -6.215976756858003E-4-6.843771618941731E-5i       -6.104711141154629E-4-6.277652027750596E-5i       -5.783256542067807E-4-5.071229443271434E-5i       -5.39219597871352E-4-2.4636389191558202E-5i       -5.137314427599497E-4+2.0962411178677E-5i         -5.073239039654137E-4+7.544664088003086E-5i       -5.100166673501614E-4+1.1539956074663288E-4i      -2.87210377106392E-4+1.2920957226924458E-4i       -2.6271088688624227E-4+8.601888123604357E-5i      -2.3692111305351687E-4+4.96819840277725E-6i       -2.390244358911224E-4-4.206646588464765E-5i       -2.5227841899374447E-4-6.195338069073066E-5i      -2.663721561265024E-4-7.403263043290862E-5i       -2.7002525038910655E-4-7.729933836930373E-5i      -2.606403445779394E-4-7.318764693612804E-5i       -2.432380262225013E-4-6.189934011803111E-5i       -2.2745209080068723E-4-4.265516876907721E-5i      -2.4014765299382228E-4+1.1829792560374868E-6i     -3.060062455779788E-4+8.08448496228183E-5i        -3.445664839591148E-4+1.2222566351015427E-4i      -2.2976166571663211E-4+1.168745144593245E-4i      -2.1579305176786364E-4+7.683684314687686E-5i      -2.0833902852160078E-4+1.6782201673120342E-5i     -2.1366046538690673E-4-2.791769302529228E-5i      -2.264312439461304E-4-5.52386518263706E-5i        -2.3359976599764536E-4-6.919644161606226E-5i      -2.3384754149740076E-4-7.467771452145473E-5i      -2.219712493684097E-4-6.969809946934079E-5i       -2.0530026916325977E-4-5.821264806270535E-5i      -1.9545051124036944E-4-3.19583517578497E-5i       -2.2073733491114278E-4+1.48066934308684E-5i       -2.6861270076087483E-4+6.988989212072772E-5i      -3.0630427642902987E-4+1.0745763759688407E-4i     -3.430688577910073E-4+1.1985942297309292E-4i      -3.3967588545437747E-4+8.324443724007633E-5i      -3.053719957430659E-4+8.788323331714387E-6i       -3.151144523671315E-4-3.769797630868586E-5i       -3.4744091460020684E-4-5.835719718823837E-5i      -3.774300699600573E-4-7.047031863038146E-5i       -3.932741954123761E-4-7.111613946501246E-5i       -3.863371016007425E-4-7.190662203819705E-5i       -3.6481752684596716E-4-5.89358712357009E-5i       -3.402035397418618E-4-3.855864054055235E-5i       -3.346629449537563E-4+3.494805910432997E-6i       -3.740084350252887E-4+8.177448587062228E-5i       -3.9679030643505783E-4+1.200744561571575E-4i
50.5                                              -4.7648981838225164E-4+1.2276703799344674E-4i     -5.088102816183784E-4+8.039881620628168E-5i       -5.17603616547674E-4+1.9160498122613865E-5i       -5.485534465842827E-4-2.925269302774804E-5i       -5.99707279963457E-4-5.6226625380268635E-5i       -6.401721356004253E-4-7.039690541527296E-5i       -6.525279604412791E-4-7.559897814052918E-5i       -6.39089409013062E-4-6.921665639631752E-5i        -6.043858478679163E-4-5.592250516279007E-5i       -5.631950927815182E-4-2.7454180184016218E-5i      -5.376350943448625E-4+2.215161674031498E-5i       -5.33111902060654E-4+8.136337573550956E-5i        -5.37779840022316E-4+1.2480031202184757E-4i       -3.2961290479314445E-4+1.3660460675713086E-4i     -2.9888589025237977E-4+9.039717098036079E-5i      -2.665902382904826E-4+2.8326318421864572E-6i      -2.6626372058812073E-4-4.790338099515221E-5i      -2.7890005018039543E-4-6.916973179987408E-5i      -2.9283918157158023E-4-8.197546918437026E-5i      -2.954962383194846E-4-8.524112562931257E-5i       -2.84294404237383E-4-8.053548921212994E-5i        -2.645715092917809E-4-6.806553121976747E-5i       -2.4675492062644543E-4-4.699414006235079E-5i      -2.594647119207989E-4+7.414445958300007E-7i       -3.2914223564732624E-4+8.729564165061908E-5i      -3.7012979655623777E-4+1.322925188853212E-4i      -2.8685951747479E-4+1.1891488706626591E-4i        -2.62869325801511E-4+7.72637302428681E-5i         -2.468068627107037E-4+1.3446141987481271E-5i      -2.4725780216859925E-4-3.411930389973288E-5i      -2.580784994244349E-4-6.311143070666823E-5i       -2.6404798262270613E-4-7.774961372618435E-5i      -2.630359598647562E-4-8.326662698428015E-5i       -2.4904834423535266E-4-7.752177208176417E-5i      -2.3006810902326648E-4-6.47823028985773E-5i       -2.1814287262087955E-4-3.602037545422321E-5i      -2.435653937607424E-4+1.5004111666587004E-5i      -2.933114574416141E-4+7.503287250400436E-5i       -3.331686225357777E-4+1.1592714303553137E-4i      -3.850787082491044E-4+1.27090433659904E-4i        -3.761593399375685E-4+8.784955742200189E-5i       -3.360209212116914E-4+7.284904972161848E-6i       -3.434194138247451E-4-4.296342180484939E-5i       -3.7515119166916334E-4-6.515122893847048E-5i      -4.051400666654785E-4-7.80534432575507E-5i        -4.202052493723063E-4-7.853745786411317E-5i       -4.114082814754919E-4-7.915317606058537E-5i       -3.8739675233509833E-4-6.488018692319025E-5i      -3.605734300141215E-4-4.2575523312162435E-5i      -3.547709140243791E-4+3.2270642577827036E-6i      -3.9758451369041066E-4+8.829405026270777E-5i      -4.2244544812854504E-4+1.2996134699546307E-4i
51                                                -5.040867831897804E-4+1.3179271903702855E-4i      -5.342030340913946E-4+8.696665733354284E-5i       -5.411441439328189E-4+2.2369083137831376E-5i      -5.715144700304975E-4-2.8531979999881872E-5i      -6.22942299776976E-4-5.672875364682969E-5i        -6.636127057253738E-4-7.145360414475174E-5i       -6.75455619682038E-4-7.687146757507245E-5i        -6.605968175015293E-4-7.028682077466627E-5i       -6.240402430426258E-4-5.650692594123958E-5i       -5.809069595798595E-4-2.677692396189588E-5i       -5.541745816021664E-4+2.5342255266908796E-5i      -5.494726050482865E-4+8.77594293312296E-5i        -5.543524765249486E-4+1.3363833508648931E-4i      -3.485510836025195E-4+1.462539058525721E-4i       -3.159444870055719E-4+9.742201393819161E-5i       -2.81928931241158E-4+5.0497162831134414E-6i       -2.8158688890336076E-4-4.824843919274865E-5i      -2.947493135581893E-4-7.041131583940148E-5i       -3.0928536030191695E-4-8.364974520740914E-5i      -3.1178786469997124E-4-8.701940513142542E-5i      -2.9970865987646633E-4-8.217176121412049E-5i      -2.786058047668035E-4-6.927394459905101E-5i       -2.593687533223314E-4-4.7344874412524293E-5i      -2.7143093943403547E-4+2.7725708503823895E-6i     -3.4210058862451623E-4+9.401871602752532E-5i      -3.838842147009222E-4+1.4153331277331094E-4i      -3.052404087688922E-4+1.2775187863569705E-4i      -2.794389219725053E-4+8.372345413093466E-5i       -2.619897355015532E-4+1.6411605345342777E-5i      -2.622195021270816E-4-3.3581794107654745E-5i      -2.7363969880694883E-4-6.385935053622681E-5i      -2.800484059786456E-4-7.906220726845034E-5i       -2.7909568099341686E-4-8.475472717751838E-5i      -2.642676234504708E-4-7.882146316582603E-5i       -2.4407096661895292E-4-6.562607093650844E-5i      -2.3078803418288357E-4-3.562442033286629E-5i      -2.5584927244904645E-4+1.7987595041955304E-5i     -3.0610691681986146E-4+8.124059757727182E-5i      -3.467062053652217E-4+1.24422630211241E-4i        -4.065302457388289E-4+1.361989229715085E-4i       -3.9563750431324113E-4+9.470589308723968E-5i      -3.5351612191104046E-4+9.740183592759283E-6i      -3.606516378632629E-4-4.3058768713049114E-5i      -3.9280169293193267E-4-6.621843367912982E-5i      -4.2339183113356037E-4-7.956121109069618E-5i      -4.382804768034272E-4-8.001234174645205E-5i       -4.28623787746134E-4-8.073022527010999E-5i        -4.0300803315249453E-4-6.596638377856826E-5i      -3.745631439383645E-4-4.274851575258974E-5i       -3.678570434394827E-4+5.335982458309994E-6i       -4.113240054831361E-4+9.502327553332017E-5i       -4.3676494805562746E-4+1.3903105662717633E-4i