% Model:              biconAndDipole_fullFeature.mph
% Version:            COMSOL 5.6.0.401
% Date:               Jan 1 2022, 14:43
% Table:              Table 1 - Global Evaluation 1 (emw.Vport_1)
% freq (MHz)                                      abs(emw.Vport_1) (V)                              (emw.Vport_1) (V)
30                                                4.8980225145945916E-5                             -2.647629899613212E-5-4.1207621222474924E-5i
35                                                7.378557904213153E-5                              -4.657182700071094E-5-5.723090602461655E-5i
40                                                1.121375367400888E-4                              -8.081035231318052E-5-7.774647326505818E-5i
42                                                1.3313431304661378E-4                             -1.0062141905195218E-4-8.717841096490112E-5i
44                                                1.585832498362984E-4                              -1.2533591014142557E-4-9.715738138537043E-5i
46                                                1.8967207513248581E-4                             -1.5632453659749528E-4-1.0741571273627381E-4i
48                                                2.2808893117880975E-4                             -1.9549080328753974E-4-1.1750704811322701E-4i
50                                                2.6361803520961774E-4                             -2.3540489232154953E-4-1.1865498370847695E-4i
50.5                                              2.8793703610881634E-4                             -2.579809118394589E-4-1.2788113969468338E-4i
51                                                3.031400864009471E-4                              -2.739044000757787E-4-1.2988568667217113E-4i
51.5                                              3.190016225179137E-4                              -2.906104317849374E-4-1.315583980855413E-4i
52                                                3.359418085983804E-4                              -3.08495128135573E-4-1.3299494231348518E-4i
52.5                                              3.5432737074138197E-4                             -3.2791707866132853E-4-1.3423216894143086E-4i
53                                                3.7492290949096146E-4                             -3.4962521555103926E-4-1.353861023593523E-4i
53.5                                              4.005952247242122E-4                              -3.7642202955813356E-4-1.3705104791710888E-4i
54                                                4.756428799918902E-4                              -4.536648558243657E-4-1.4291377777120437E-4i
54.5                                              4.0359822883220505E-4                             -3.845064750666567E-4-1.2266336432817856E-4i
55                                                4.409832196994184E-4                              -4.2253504696487386E-4-1.262154275152501E-4i
55.5                                              4.6963042163626807E-4                             -4.527218039217299E-4-1.2488274972995126E-4i
56                                                4.979212160088429E-4                              -4.8278008200090816E-4-1.2185618480373162E-4i
56.5                                              5.273106789217894E-4                              -5.14064362812173E-4-1.1744949123547928E-4i
57                                                5.583581453733672E-4                              -5.470894253154309E-4-1.116108382408171E-4i
57.5                                              5.914076262903966E-4                              -5.821602216350885E-4-1.0417512553496634E-4i
58                                                6.267401124460252E-4                              -6.195118628155348E-4-9.491164512156725E-5i
58.5                                              6.646233507768634E-4                              -6.593530413947367E-4-8.353301862961908E-5i
59                                                7.053325154745999E-4                              -7.018809378886931E-4-6.969294379071024E-5i
59.5                                              7.491608272997925E-4                              -7.472852086485937E-4-5.297888348707688E-5i
60                                                7.964261296544216E-4                              -7.957462353569389E-4-3.2901503181172885E-5i
60.5                                              8.474755341181704E-4                              -8.474289951972605E-4-8.881386594419648E-6i
61                                                9.026888424955537E-4                              -9.024723920309231E-4+1.976684061620491E-5i
61.5                                              9.624807867101236E-4                              -9.609730124422435E-4+5.385289355102705E-5i
62                                                0.001027301594782036                              -0.0010229614630089736+9.433139371521314E-5i
62.5                                              0.0010976338995837746                             -0.0010883678006713272+1.423225490825047E-4i
63                                                0.0011739657106870534                             -0.001156957089980506+1.9911248532625375E-4i
63.5                                              0.0012570197439718271                             -0.0012284822216756086+2.663269940542243E-4i
64                                                0.0013470285352136042                             -0.0013019454083303113+3.4557781816448675E-4i
64.5                                              0.0014446919338004906                             -0.001376413883591376+4.38884500347309E-4i
65                                                0.0015504322109236154                             -0.0014502115118873698+5.48385458832416E-4i
65.5                                              0.0016645648259928927                             -0.0015209725446715854+6.763272715838028E-4i
66                                                0.0017871871288971009                             -0.0015854252024578741+8.24902879802751E-4i
66.5                                              0.0019180552078867095                             -0.0016391920491283702+9.95984541333681E-4i
67                                                0.002056429004711155                              -0.0016766358419337355+0.0011907109241795278i
67.5                                              0.0022008916801757234                             -0.001690831799046141+0.001408904544389402i
68                                                0.0023491657832760207                             -0.001673788504925357+0.0016483361059245708i
68.5                                              0.002497971950860832                              -0.001617064622965726+0.0019039343141085997i
69                                                0.002643001355395018                              -0.0015128980439689937+0.0021671630472058843i
69.5                                              0.0027790868373334353                             -0.0013558282453416727+0.0024259129041607564i
70                                                0.0029006368712594798                             -0.0011445331173574854+0.0026652838877278986i
70.5                                              0.003002322543898358                              -8.832998594620281E-4+0.0028694462908154723i
71                                                0.0030798911606961764                             -5.824156167579613E-4+0.0030243216778462713i
71.5                                              0.0031308780233936266                             -2.570195297473738E-4+0.0031203105868963786i
72                                                0.0031549788859249308                             7.540703034837967E-5+0.003154077606909214i
72.5                                              0.0031539618239507868                             3.980829558928136E-4+0.0031287385872211526i
73                                                0.003131179001194671                              6.97461410541926E-4+0.0030525120013404246i
73.5                                              0.0030908755040546096                             9.645682295096779E-4+0.0029365148581584604i
74                                                0.0030375156499625492                             0.0011950716452999036+0.002792544554052377i
74.5                                              0.002975275340183763                              0.001388472533710514+0.0026314268701670414i
75                                                0.002907749437743475                              0.0015469356601600526+0.0024621122752674536i
75.5                                              0.00283785129178278                               0.0016741663630942068+0.0022914115612340594i
76                                                0.0027678574349339663                             0.0017745474708328473+0.002124150666473539i
76.5                                              0.0026995798796247005                             0.0018526181821752797+0.0019635522395770565i
77                                                0.0026348218338120358                             0.0019130271945945996+0.0018117982913873538i
77.5                                              0.002577962848171042                              0.0019625391456422597+0.001671625720181375i
78                                                8.32270292855503E-4                               8.209398637240456E-4+1.3686336441330837E-4i
78.5                                              0.002430704196639913                              0.001989126081874439+0.0013970326846461849i
79                                                0.0023842555278830546                             0.002008892100285339+0.0012841444434533303i
79.5                                              0.0023365825693283555                             0.0020184828885739486+0.0011770067679598402i
80                                                0.0022911459642732403                             0.0020223232324345477+0.001076828014662062i
80.5                                              0.0022485017693659433                             0.0020220853448455075+9.833265302038804E-4i
81                                                0.002208698462955255                              0.0020187984741085645+8.95991976078937E-4i
81.5                                              0.002171629142186526                              0.0020131888606609925+8.142749796624491E-4i
82                                                0.0021371226061610276                             0.002005786546026394+7.376404039530449E-4i
82.5                                              0.002104972762425815                              0.0019969741645735443+6.655858446364073E-4i
83                                                0.002074946230817487                              0.001987012563378466+5.976478342300197E-4i
83.5                                              0.002046777807682717                              0.0019760518692305937+5.334026660345333E-4i
84                                                0.0020201542286957834                             0.0019641284076705175+4.7246450226353824E-4i
84.5                                              0.001994680481644799                              0.0019511419753869767+4.144818641843508E-4i
85                                                0.00196981303056616                               0.0019367981451476918+3.591327335967848E-4i
85.5                                              0.0019447205333992222                             0.0019204765027808926+3.061175514259639E-4i
86                                                0.0019179633460077966                             0.001900916416073367+2.551473608176429E-4i
86.5                                              0.001886640588820908                              0.00187536944504914+2.0591783789313475E-4i
87                                                0.0018435583755223518                             0.0018367730704558262+1.580258573996344E-4i
87.5                                              0.0017635364979647025                             0.0017600619954693027+1.1064696904219032E-4i
88                                                0.001433541149981119                              0.0014323155031301352+5.926658571452666E-5i
88.5                                              0.002260892184371748                              0.0022604360285526006+4.541398655261955E-5i
89                                                0.0022847513121891047                             0.0022847495213112723-2.860667360343316E-6i
89.5                                              0.0020687000904534986                             0.0020680940524950633-5.0070493075857616E-5i
90                                                0.0020140586506091278                             0.0020119714833644535-9.166786908017889E-5i
90.5                                              0.0019867365902877672                             0.0019823561405473283-1.3185754139435514E-4i
91                                                0.001970499620946791                              0.0019630485785385884-1.7119881555979026E-4i
91.5                                              0.0019603617579933823                             0.001949087798792393-2.099404077387888E-4i
92                                                0.0019542597234769145                             0.0019384276332548064-2.4825264840125334E-4i
92.5                                              0.0019512215919546276                             0.0019301046555997047-2.8628957253504065E-4i
93                                                0.0019508110059189832                             0.0019236809765806062-3.242145603709377E-4i
93.5                                              0.0019529651655373788                             0.0019190754680621334-3.622461672461765E-4i
94                                                0.001958093527395271                              0.0019166454587858039-4.0074985632313056E-4i
94.5                                              0.0019676971029724834                             0.0019177459319906825-4.405478741062003E-4i
95                                                0.001987528023257326                              0.001927581411669951-4.8445592639336405E-4i
95.5                                              0.002062513145581557                              0.001986024158110536-5.564786780264506E-4i
96                                                0.0017823593030367995                             0.0017134585341460377-4.907795196256027E-4i
96.5                                              0.0019086650647891447                             0.0018252038296505632-5.582412648447517E-4i
97                                                0.0019315160181526683                             0.0018354506652894797-6.015604572017221E-4i
97.5                                              0.0019336504312130753                             0.0018248140417623545-6.395761902365125E-4i
98                                                0.0019989484737255774                             0.0019414069593655053-4.7616595713784307E-4i
98.5                                              0.0018228359516722758                             0.0017033846661397354-6.490081554718658E-4i
99                                                0.0023867428210447256                             0.0022300951047756396-8.504217291816248E-4i
99.5                                              0.0022003360711406092                             0.002025685832382443-8.591133420262669E-4i
100                                               0.0022010021894858277                             0.002008388739388175-9.004361774274652E-4i
100.5                                             0.00223852157084894                               0.0020248877069401223-9.543629275274581E-4i
101                                               0.002310213838523624                              0.0020710462002964886-0.0010236481895375645i
101.5                                             0.002448045445188281                              0.002174055535322156-0.001125348404291837i
102                                               0.0028096147974611507                             0.0024699001863129023-0.0013392267842916499i
102.5                                             0.0072832021983939696                             0.0062718808491593276-0.003702505216287916i
103                                               0.0010009424943773055                             8.621531909803547E-4-5.085054103278096E-4i
103.5                                             0.0016036096938810065                             0.0013679247329114951-8.368667608395913E-4i
104                                               0.0017924025256393363                             0.0015116487696747532-9.631328107063307E-4i
104.5                                             0.001892524945280933                              0.001577131336138383-0.0010460914955590437i
105                                               0.0019602542943954896                             0.001613231231609321-0.0011135896425776561i
105.5                                             0.00201626306527237                               0.001637292837833029-0.0011766855618907713i
106                                               0.002014581874227742                              0.001618189537352734-0.0012000011454865805i
106.5                                             0.0020779972499473053                             0.0016428832328596128-0.0012724021589015444i
107                                               0.0021131917031538446                             0.001645682197370783-0.001325635424819025i
107.5                                             0.0021429032290318987                             0.0016427823266080166-0.001375972556550344i
108                                               0.0021661799767053154                             0.0016334728253256743-0.0014227094645083375i
108.5                                             0.002170100661322116                              0.0016086963924026604-0.0014565139193778239i
109                                               0.001661899547320226                              0.001483704046751263-7.486871222594241E-4i
109.5                                             0.0023564584627876104                             0.001687631309918043-0.0016446267201488788i
110                                               0.002354126489501859                              0.0016492509418051093-0.0016798460820948167i
110.5                                             0.0023747487531419523                             0.0016275662074042784-0.001729294619509617i
111                                               0.0024025210076602634                             0.0016089693351290012-0.001784187453958644i
111.5                                             0.0024419834150209204                             0.0015955839304645156-0.0018486197337691287i
112                                               0.002579126547839034                              0.0016401229739276104-0.0019904497934293505i
112.5                                             0.0020946737187422537                             0.0012957154650405469-0.001645836997288693i
113                                               0.0021197554977459084                             0.001272798174724839-0.0016950953296617631i
113.5                                             0.0011491820966249963                             6.746440810014802E-4-9.303090105836287E-4i
114                                               0.0036694673017630083                             0.002067518405754401-0.0030315603112217103i
114.5                                             0.003080237332722619                              0.001662837503771635-0.002592842737604553i
115                                               0.0014921227524661452                             9.843798064316882E-4-0.0011213503935508548i
115.5                                             0.00302192284195934                               0.0014863732112528557-0.0026311047754936498i
116                                               0.0030225808719072816                             0.0014067003579321155-0.0026752923635022475i
116.5                                             0.00304416711712255                               0.0013300025661829938-0.0027382561258795473i
117                                               0.003074008110452129                              0.0012479614309569087-0.0028092913928550473i
117.5                                             0.0031072955858124783                             0.0011562778883675532-0.0028841475868065392i
118                                               0.003140962050041514                              0.001051420310416035-0.002959756397179612i
118.5                                             0.0031721468633987755                             9.296113617571434E-4-0.003032876265043254i
119                                               0.0031974813798753103                             7.865723443263573E-4-0.003099224277426572i
119.5                                             0.0032123518111604357                             6.172974605800192E-4-0.0031524828316466993i
120                                               0.0032098708504423325                             4.160650651683603E-4-0.003182791343783917i
120.5                                             0.003179107122192258                              1.769654684003042E-4-0.0031741778963012457i
121                                               0.003101584067683212                              -1.042147536046805E-4-0.0030998327396873295i
121.5                                             0.0029424139539444448                             -4.246512008761594E-4-0.0029116097324266206i
122                                               0.0026054885021239084                             -7.590539454704057E-4-0.0024924701487812643i
122.5                                             0.004464395532654583                              5.141384860868661E-4-0.004434691543851782i
123                                               0.0019710349688406145                             -0.0010897236308836623-0.0016424010645047238i
123.5                                             9.533156234946004E-4                              -7.175287072463003E-4-6.276649044485057E-4i
124                                               2.636076880522938E-4                              2.4191704260720495E-4+1.0471464891054746E-4i
124.5                                             0.0015248413139158266                             0.0015110149492674014+2.0487766036094912E-4i
125                                               0.002626495021888439                              0.002607630723343898-3.142262094061069E-4i
125.5                                             0.0034925309667118193                             0.003302759648059349-0.0011355841054681423i
126                                               0.004157930821851404                              0.0036462258618173205-0.0019983557450855526i
126.5                                             0.004687555939052664                              0.0037620506735642533-0.0027964540781644617i
127                                               0.005136611800423065                              0.0037462815243972866-0.003514278806270928i
127.5                                             0.005545277904557525                              0.0036560377281632923-0.0041693518883659225i
128                                               0.005945354829644545                              0.0035227650726800514-0.004789297473855975i
128.5                                             0.0063651243943706705                             0.003363010015328316-0.0054041624876213735i
129                                               0.006862632390477999                              0.0031958563914829046-0.006073073789429505i
129.5                                             0.00761880353162649                               0.0030718837385379765-0.006972065515356996i
130                                               0.010948064018929681                              0.0036482672839373512-0.010322318130513857i
130.5                                             0.0052353721071007175                             0.0014801191697511446-0.005021789356707765i
131                                               0.006804383536959951                              0.001470247898973785-0.006643644062832896i
131.5                                             0.007343356564344                                 0.001038334854907267-0.007269576766234663i
132                                               0.009068865019709299                              0.002035109319361401-0.008837569960342906i
132.5                                             0.008248005745414089                              -2.2195365860564847E-4-0.008245018820464595i
133                                               0.00935406741496869                               -3.67650398842013E-4-0.009346839593574416i
133.5                                             0.009808886536650999                              -0.0011886940599313833-0.009736593938373781i
134                                               0.01028071197762814                               -0.0021022054548095657-0.010063487019553192i
134.5                                             0.010745533755105457                              -0.0031220044172508956-0.010282002922620508i
135                                               0.011183962926002848                              -0.004240436995105635-0.010348899498050297i
135.5                                             0.011573016542258023                              -0.005431937096052222-0.010219039645285147i
136                                               0.011884591108229548                              -0.006650427164425164-0.009849635746589045i
136.5                                             0.012082467253432034                              -0.007826090270642724-0.009205342253605172i
137                                               0.012111717490635953                              -0.008858430944846072-0.00825965506352235i
137.5                                             0.011801821871325412                              -0.00954179771951216-0.006945293065264229i
138                                               0.006919010449295395                              -0.006054665005270333-0.0033486918746599642i
138.5                                             0.054574572615722905                              0.0028406170264021285+0.05450059514443972i
139                                               0.008489757445361654                              -0.008230424612063877-0.0020823285490543563i
139.5                                             0.0056696789309244825                             -0.005668999663264281-8.776102596511355E-5i
140                                               0.005777461270619719                              0.0046346299112635155-0.0034495310288693384i
140.5                                             0.018152124514457697                              -0.017612656773242898-0.004392487424719304i
141                                               0.013255646778441604                              -0.013239966981603178-6.445508830704789E-4i
141.5                                             0.010395933893688373                              -0.010366171575803192+7.860842085608104E-4i
142                                               0.029419831924762146                              -0.029257187380639576-0.0030892550971712085i
142.5                                             0.012027213555907676                              -0.011788569636905284+0.002384007515769227i
143                                               0.010220784071166404                              -0.009821236228417992+0.0028297961013152226i
143.5                                             0.008810950086968848                              -0.00827828206762041+0.003017099177019324i
144                                               0.007097608476964807                              -0.006499964466834378+0.002850703075062917i
144.5                                             0.003730302395373937                              -0.0033207337081083504+0.0016993774156335898i
145                                               0.027569531780767778                              0.02031357770939055-0.01863967926911072i
145.5                                             0.009605677227810302                              -0.008476537033518389+0.004518556730225337i
146                                               0.014984412767610552                              -0.012613929377007012+0.00808835036716447i
146.5                                             0.012758635414897879                              -0.010370441028667349+0.007432141718321798i
147                                               0.012641940977785829                              -0.009927307073605085+0.00782733964717074i
147.5                                             0.022210448424378533                              -0.016494839167964688+0.014873610860680633i
148                                               0.004374869979035993                              -0.0032569341068959977+0.0029209360754401934i
148.5                                             0.0064232162151906655                             -0.004632016941269601+0.004449957932708993i