% Model:              biconAndDipole_fullFeature.mph
% Version:            COMSOL 5.6.0.401
% Date:               Jan 1 2022, 14:45
% Table:              Table 9 - s12
% freq (MHz)                                      abs(emw.S12) (1)                                  S12 (1)
30                                                8.163370857657652E-5                              -4.412716499355353E-5-6.867936870412487E-5i
35                                                1.229759650702192E-4                              -7.761971166785157E-5-9.538484337436092E-5i
40                                                1.8689589456681466E-4                             -1.3468392052196754E-4-1.2957745544176362E-4i
42                                                2.218905217443563E-4                              -1.6770236508658698E-4-1.4529735160816854E-4i
44                                                2.6430541639383065E-4                             -2.0889318356904262E-4-1.619289689756174E-4i
46                                                3.161201252208097E-4                              -2.605408943291588E-4-1.790261878937897E-4i
48                                                3.801482186313496E-4                              -3.258180054792329E-4-1.958450801887117E-4i
50                                                4.3936339201602957E-4                             -3.923414872025826E-4-1.977583061807949E-4i
50.5                                              4.798950601813606E-4                              -4.299681863990982E-4-2.1313523282447233E-4i
51                                                5.052334773349118E-4                              -4.565073334596312E-4-2.1647614445361856E-4i
51.5                                              5.316693708631895E-4                              -4.8435071964156236E-4-2.192639968092355E-4i
52                                                5.599030143306341E-4                              -5.141585468926217E-4-2.2165823718914198E-4i
52.5                                              5.905456179023033E-4                              -5.465284644355475E-4-2.2372028156905142E-4i
53                                                6.248715158182691E-4                              -5.827086925850654E-4-2.2564350393225387E-4i
53.5                                              6.67658707873687E-4                               -6.273700492635559E-4-2.2841841319518145E-4i
54                                                7.927381333198171E-4                              -7.561080930406095E-4-2.3818962961867396E-4i
54.5                                              6.726637147203418E-4                              -6.408441251110946E-4-2.0443894054696427E-4i
55                                                7.349720328323641E-4                              -7.042250782747898E-4-2.103590458587502E-4i
55.5                                              7.827173693937802E-4                              -7.545363398695499E-4-2.0813791621658546E-4i
56                                                8.298686933480714E-4                              -8.046334700015135E-4-2.030936413395527E-4i
56.5                                              8.788511315363156E-4                              -8.567739380202885E-4-1.9574915205913213E-4i
57                                                9.305969089556122E-4                              -9.118157088590516E-4-1.8601806373469518E-4i
57.5                                              9.856793771506611E-4                              -9.702670360584809E-4-1.736252092249439E-4i
58                                                0.0010445668540767087                             -0.0010325197713592247-1.581860752026121E-4i
58.5                                              0.0011077055846281058                             -0.0010989217356578945-1.3922169771603181E-4i
59                                                0.0011755541924576667                             -0.001169801563147822-1.1615490631785041E-4i
59.5                                              0.0012486013788329876                             -0.0012454753477476562-8.829813914512813E-5i
60                                                0.0013273768827573693                             -0.0013262437255948981-5.483583863528814E-5i
60.5                                              0.001412459223530284                              -0.0014123816586621009-1.4802310990699413E-5i
61                                                0.0015044814041592562                             -0.0015041206533848719+3.294473436034152E-5i
61.5                                              0.0016041346445168727                             -0.001601621687403739+8.975482258504509E-5i
62                                                0.0017121693246367265                             -0.0017049357716816228+1.5721898952535525E-4i
62.5                                              0.0018293898326396242                             -0.001813946334452212+2.3720424847084118E-4i
63                                                0.0019566095178117555                             -0.0019282618166341766+3.3185414221042293E-4i
63.5                                              0.002095032906619712                              -0.0020474703694593477+4.438783234237072E-4i
64                                                0.0022450475586893405                             -0.002169909013883852+5.759630302741446E-4i
64.5                                              0.0024078198896674845                             -0.00229402313931896+7.31474167245515E-4i
65                                                0.002584053684872692                              -0.0024170191864789498+9.139757647206934E-4i
65.5                                              0.0027742747099881544                             -0.0025349542411193093+0.001127212119306338i
66                                                0.002978645214828502                              -0.0026423753374297905+0.001374838133004585i
66.5                                              0.0031967586798111822                             -0.0027319867485472837+0.001659974235556135i
67                                                0.003427381674518592                              -0.0027943930698895595+0.00198451820696588i
67.5                                              0.003668152800292872                              -0.002818052998410235+0.002348174240649003i
68                                                0.0039152763054600345                             -0.0027896475082089286+0.002747226843207618i
68.5                                              0.004163286584768053                              -0.0026951077049428766+0.0031732238568476664i
69                                                0.004405002258991696                              -0.002521496739948323+0.003611938412009807i
69.5                                              0.004631811395555725                              -0.002259713742236121+0.004043188173601261i
70                                                0.004834394785432467                              -0.001907555195595809+0.0044421398128798315i
70.5                                              0.005003870906497264                              -0.0014721664324367134+0.004782410484692454i
71                                                0.005133151934493628                              -9.706926945966021E-4+0.005040536129743786i
71.5                                              0.005218130038989379                              -4.283658829122896E-4+0.005200517644827298i
72                                                0.0052582981432082185                             1.2567838391396613E-4+0.0052567960115153575i
72.5                                              0.005256603039917978                              6.634715931546893E-4+0.005214564312035254i
73                                                0.005218631668657785                              0.0011624356842365434+0.005087520002234041i
73.5                                              0.005151459173424349                              0.0016076137158494634+0.0048941914302641i
74                                                0.005062526083270916                              0.001991786075499839+0.004654240923420629i
74.5                                              0.004958792233639604                              0.0023141208895175232+0.004385711450278402i
75                                                0.004846249062905792                              0.0025782261002667544+0.00410352045877909i
75.5                                              0.0047297521529713                                0.002790277271823678+0.0038190192687234323i
76                                                0.004613095724889943                              0.0029575791180547453+0.003540251110789232i
76.5                                              0.004499299799374501                              0.003087696970292133+0.0032725870659617608i
77                                                0.00439136972302006                               0.0031883786576576666+0.003019663818978923i
77.5                                              0.0042966047469517364                             0.0032708985760704326+0.0027860428669689583i
78                                                0.0013871171547591716                             0.0013682331062067428+2.2810560735551398E-4i
78.5                                              0.004051173661066522                              0.0033152101364573986+0.002328387807743642i
79                                                0.003973759213138425                              0.003348153500475565+0.002140240739088884i
79.5                                              0.003894304282213926                              0.0033641381476232474+0.0019616779465997337i
80                                                0.003818576607122067                              0.003370538720724246+0.0017947133577701036i
80.5                                              0.0037475029489432393                             0.0033701422414091796+0.0016388775503398008i
81                                                0.0036811641049254253                             0.003364664123514274+0.0014933199601315618i
81.5                                              0.00361938190364421                               0.0033553147677683206+0.0013571249661040819i
82                                                0.0035618710102683798                             0.003342977576710657+0.0012294006732550748i
82.5                                              0.0035082879373763576                             0.0033282902742892404+0.0011093097410606787i
83                                                0.003458243718029145                              0.003311687605630777+9.960797237166994E-4i
83.5                                              0.0034112963461378626                             0.0032934197820509896+8.890044433908888E-4i
84                                                0.0033669237144929726                             0.0032735473461175295+7.874408371058971E-4i
84.5                                              0.0033244674694079992                             0.0032519032923116285+6.90803106973918E-4i
85                                                0.0032830217176102665                             0.0032279969085794867+5.985545559946413E-4i
85.5                                              0.003241200888998704                              0.003200794171301488+5.101959190432731E-4i
86                                                0.0031966055766796606                             0.003168194026788945+4.252456013627382E-4i
86.5                                              0.00314440098136818                               0.0031256157417485666+3.431963964885579E-4i
87                                                0.003072597292537253                              0.00306128845075971+2.633764289993907E-4i
87.5                                              0.0029392274966078377                             0.0029334366591155046+1.844116150703172E-4i
88                                                0.002389235249968532                              0.002387192505216892+9.877764285754445E-5i
88.5                                              0.0037681536406195806                             0.0037673933809210013+7.568997758769925E-5i
89                                                0.0038079188536485078                             0.003807915868852121-4.767778933905527E-6i
89.5                                              0.003447833484089164                              0.0034468234208251056-8.345082179309603E-5i
90                                                0.00335676441768188                               0.003353285805607423-1.5277978180029816E-4i
90.5                                              0.0033112276504796124                             0.003303926900912214-2.197625689905919E-4i
91                                                0.0032841660349113184                             0.0032717476308976473-2.853313592663171E-4i
91.5                                              0.0032672695966556374                             0.0032484796646539884-3.49900679564648E-4i
92                                                0.003257099539128191                              0.0032307127220913444-4.137544140020889E-4i
92.5                                              0.003252035986591046                              0.003216841092666175-4.771492875584011E-4i
93                                                0.003251351676531639                              0.003206134960967677-5.403576006182295E-4i
93.5                                              0.003254941942562298                              0.003198459113436889-6.037436120769607E-4i
94                                                0.003263489212325451                              0.0031944090979763398-6.679164272052176E-4i
94.5                                              0.003279495171620806                              0.0031962432199844713-7.342464568436672E-4i
95                                                0.0033125467054288763                             0.0032126356861165847-8.074265439889401E-4i
95.5                                              0.003437521909302595                              0.0033100402635175595-9.274644633774178E-4i
96                                                0.0029705988383946663                             0.00285576422357673-8.179658660426713E-4i
96.5                                              0.003181108441315241                              0.0030420063827509385-9.304021080745862E-4i
97                                                0.0032191933635877805                             0.003059084442149133-0.0010026007620028703i
97.5                                              0.0032227507186884585                             0.0030413567362705908-0.0010659603170608543i
98                                                0.003331580789542629                              0.003235678265609176-7.936099285630718E-4i
98.5                                              0.0030380599194537936                             0.002838974443566226-0.0010816802591197764i
99                                                0.003977904701741209                              0.003716825174626066-0.0014173695486360412i
99.5                                              0.0036672267852343493                             0.0033761430539707388-0.0014318555700437781i
100                                               0.00366833698247638                               0.0033473145656469586-0.0015007269623791087i
100.5                                             0.003730869284748234                              0.003374812844900204-0.0015906048792124303i
101                                               0.0038503563975393735                             0.0034517436671608146-0.001706080315895941i
101.5                                             0.004080075741980468                              0.003623425892203593-0.0018755806738197285i
102                                               0.004682691329101918                              0.004116500310521504-0.0022320446404860833i
102.5                                             0.012138670330656616                              0.010453134748598878-0.006170842027146527i
103                                               0.0016682374906288426                             0.001436921984967258-8.475090172130161E-4i
103.5                                             0.0026726828231350107                             0.002279874554852492-0.0013947779347326522i
104                                               0.0029873375427322273                             0.0025194146161245886-0.001605221351177218i
104.5                                             0.003154208242134888                              0.002628552226897305-0.0017434858259317396i
105                                               0.0032670904906591494                             0.0026887187193488683-0.001855982737629427i
105.5                                             0.003360438442120617                              0.002728821396388382-0.0019611426031512853i
106                                               0.0033576364570462366                             0.002696982562254557-0.002000001909144301i
106.5                                             0.0034633287499121757                             0.002738138721432688-0.0021206702648359074i
107                                               0.0035219861719230743                             0.0027428036622846384-0.002209392374698375i
107.5                                             0.0035715053817198315                             0.0027379705443466946-0.0022932875942505734i
108                                               0.0036102999611755263                             0.002722454708876124-0.0023711824408472293i
108.5                                             0.00361683443553686                               0.002681160654004434-0.00242752319896304i
109                                               0.002769832578867043                              0.0024728400779187717-0.0012478118704323735i
109.5                                             0.003927430771312685                              0.0028127188498634054-0.002741044533581465i
110                                               0.003923544149169765                              0.0027487515696751823-0.002799743470158028i
110.5                                             0.003957914588569921                              0.0027126103456737976-0.002882157699182695i
111                                               0.004004201679433773                              0.0026816155585483357-0.0029736457565977398i
111.5                                             0.0040699723583682                                0.002659306550774193-0.0030810328896152144i
112                                               0.00429854424639839                               0.0027335382898793508-0.003317416322382251i
112.5                                             0.0034911228645704228                             0.002159525775067578-0.0027430616621478216i
113                                               0.003532925829576514                              0.0021213302912080653-0.002825158882769605i
113.5                                             0.0019153034943749936                             0.0011244068016691337-0.0015505150176393812i
114                                               0.006115778836271681                              0.003445864009590669-0.005052600518702851i
114.5                                             0.0051337288878710325                             0.0027713958396193917-0.004321404562674255i
115                                               0.002486871254110242                              0.0016406330107194805-0.0018689173225847583i
115.5                                             0.005036538069932234                              0.0024772886854214264-0.00438517462582275i
116                                               0.005037634786512137                              0.002344500596553526-0.00445882060583708i
116.5                                             0.005073611861870917                              0.002216670943638323-0.004563760209799246i
117                                               0.0051233468507535474                             0.0020799357182615147-0.004682152321425079i
117.5                                             0.00517882597635413                               0.0019271298139459218-0.004806912644677566i
118                                               0.00523493675006919                               0.001752367184026725-0.004932927328632687i
118.5                                             0.005286911438997959                              0.0015493522695952393-0.00505479377507209i
119                                               0.005329135633125518                              0.0013109539072105956-0.005165373795710954i
119.5                                             0.005353919685267393                              0.0010288291009666985-0.005254138052744499i
120                                               0.005349784750737221                              6.934417752806005E-4-0.005304652239639862i
120.5                                             0.005298511870320431                              2.9494244733384035E-4-0.00529029649383541i
121                                               0.00516930677947202                               -1.7369125600780086E-4-0.005166387899478883i
121.5                                             0.004904023256574075                              -7.077520014602657E-4-0.004852682887377701i
122                                               0.004342480836873181                              -0.0012650899091173429-0.0041541169146354405i
122.5                                             0.0074406592210909716                             8.568974768114436E-4-0.007391152573086304i
123                                               0.003285058281401024                              -0.0018162060514727704-0.002737335107507873i
123.5                                             0.001588859372491001                              -0.001195881178743834-0.0010461081740808429i
124                                               4.3934614675382303E-4                             4.031950710120083E-4+1.7452441485091245E-4i
124.5                                             0.0025414021898597107                             0.0025183582487790022+3.4146276726824856E-4i
125                                               0.004377491703147398                              0.004346051205573163-5.237103490101782E-4i
125.5                                             0.0058208849445196996                             0.005504599413432249-0.001892640175780237i
126                                               0.006929884703085674                              0.006077043103028867-0.003330592908475921i
126.5                                             0.00781259323175444                               0.006270084455940422-0.00466075679694077i
127                                               0.008561019667371774                              0.006243802540662145-0.00585713134378488i
127.5                                             0.009242129840929208                              0.0060933962136054875-0.006948919813943204i
128                                               0.009908924716074241                              0.005871275121133419-0.007982162456426625i
128.5                                             0.010608540657284452                              0.00560501669221386-0.009006937479368957i
129                                               0.011437720650796667                              0.005326427319138174-0.010121789649049176i
129.5                                             0.012698005886044151                              0.0051198062308966275-0.011620109192261661i
130                                               0.018246773364882802                              0.006080445473228919-0.01720386355085643i
130.5                                             0.008725620178501196                              0.0024668652829185744-0.008369648927846276i
131                                               0.011340639228266586                              0.0024504131649563084-0.011072740104721493i
131.5                                             0.012238927607240001                              0.0017305580915121118-0.012115961277057772i
132                                               0.01511477503284883                               0.003391848865602335-0.014729283267238175i
132.5                                             0.013746676242356816                              -3.699227643427475E-4-0.01374169803410766i
133                                               0.015590112358281153                              -6.127506647366883E-4-0.015578065989290695i
133.5                                             0.016348144227751667                              -0.0019811567665523055-0.016227656563956305i
134                                               0.017134519962713566                              -0.003503675758015943-0.016772478365921988i
134.5                                             0.01790922292517576                               -0.0052033406954181596-0.01713667153770085i
135                                               0.018639938210004748                              -0.007067394991842725-0.017248165830083827i
135.5                                             0.019288360903763374                              -0.00905322849342037-0.017031732742141915i
136                                               0.01980765184704925                               -0.011084045274041941-0.01641605957764841i
136.5                                             0.020137445422386723                              -0.013043483784404541-0.015342237089341954i
137                                               0.02018619581772659                               -0.014764051574743453-0.01376609177253725i
137.5                                             0.019669703118875687                              -0.015902996199186933-0.011575488442107049i
138                                               0.011531684082158992                              -0.010091108342117221-0.005581153124433274i
138.5                                             0.09095762102620485                               0.004734361710670215+0.09083432524073287i
139                                               0.014149595742269424                              -0.013717374353439796-0.003470547581757261i
139.5                                             0.009449464884874137                              -0.009448332772107135-1.462683766085226E-4i
140                                               0.009629102117699531                              0.007724383185439192-0.005749218381448897i
140.5                                             0.0302535408574295                                -0.029354427955404834-0.007320812374532173i
141                                               0.02209274463073601                               -0.022066611636005297-0.0010742514717841313i
141.5                                             0.017326556489480623                              -0.017276952626338653+0.0013101403476013507i
142                                               0.04903305320793691                               -0.04876197896773263-0.005148758495285348i
142.5                                             0.02004535592651279                               -0.019647616061508808+0.0039733458596153785i
143                                               0.017034640118610674                              -0.01636872704736332+0.004716326835525372i
143.5                                             0.014684916811614747                              -0.013797136779367352+0.00502849862836554i
144                                               0.011829347461608013                              -0.010833274111390631+0.004751171791771528i
144.5                                             0.006217170658956562                              -0.0055345561801805835+0.00283229569272265i
145                                               0.045949219634612966                              0.03385596284898425-0.031066132115184535i
145.5                                             0.016009462046350502                              -0.014127561722530647+0.007530927883708894i
146                                               0.02497402127935092                               -0.02102321562834502+0.013480583945274117i
146.5                                             0.02126439235816313                               -0.01728406838111225+0.012386902863869662i
147                                               0.02106990162964305                               -0.01654551178934181+0.013045566078617902i
147.5                                             0.03701741404063089                               -0.02749139861327448+0.024789351434467723i
148                                               0.007291449965059989                              -0.00542822351149333+0.004868226792400322i
148.5                                             0.01070536035865111                               -0.0077200282354493365+0.007416596554514989i
149                                               0.010851823582968758                              -0.0074970083909023915+0.007845823109312117i