% Model:              biconAndDipole_fullFeature.mph
% Version:            COMSOL 5.6.0.401
% Date:               Jan 1 2022, 14:45
% Table:              Table 10 - s22
% freq (MHz)                                      abs(emw.S22) (1)                                  S22 (1)
30                                                0.9996005196601838                                0.9993736740744233-0.021294564374454372i
35                                                0.999600463154371                                 0.9992910060909531-0.024871089324025254i
40                                                0.9996004065012557                                0.9991951579999019-0.028460655421592956i
42                                                0.9996003537430912                                0.9991530512750536-0.02990062425875211i
44                                                0.9996003384116497                                0.9991088290480337-0.03134300992169991i
46                                                0.9996002944607204                                0.9990624044182383-0.03278811925083955i
48                                                0.9996002391279393                                0.9990137793478109-0.034236044424505785i
50                                                0.999600177389712                                 0.9989629422680569-0.03568689693277216i
50.5                                              0.9996001579338345                                0.9989498809561972-0.03605011898657569i
51                                                0.9996001478869102                                0.9989366931656275-0.03641344123882971i
51.5                                              0.9996001256304418                                0.9989233496313229-0.03677706787840388i
52                                                0.9996001027387801                                0.9989098662127252-0.03714087476427154i
52.5                                              0.9996000780020143                                0.9988962402128853-0.03750489608297649i
53                                                0.999600031451253                                 0.9988824473132907-0.03786923984920978i
53.5                                              0.9995999829067301                                0.9988685096153672-0.03823383744682504i
54                                                0.9995995961272567                                0.998854040426058-0.03859998059991182i
54.5                                              0.9995999549999887                                0.9988403411581601-0.038962070158421534i
55                                                0.9995999052817642                                0.9988259651123503-0.03932762460019499i
55.5                                              0.9995998724427687                                0.9988114784200182-0.03969301656484533i
56                                                0.9995998259199479                                0.9987968380591632-0.040058560411076354i
56.5                                              0.9995997757451509                                0.9987820517554737-0.040424309034071425i
57                                                0.9995997201134423                                0.9987671169691061-0.040790274724400444i
57.5                                              0.9995996577833496                                0.9987520317713982-0.041156468180515555i
58                                                0.9995995879976196                                0.9987367949685929-0.041522893695812226i
58.5                                              0.9995995097549695                                0.9987214051438191-0.04188955490251607i
59                                                0.9995994217792697                                0.9987058606018823-0.042256455375529994i
59.5                                              0.9995993225281468                                0.9986901593794353-0.0426235985975854i
60                                                0.999599210169838                                 0.9986742992214817-0.042990987970114025i
60.5                                              0.9995990825376815                                0.9986582775370482-0.04335862678764817i
61                                                0.9995989370717441                                0.998642091342108-0.04372651821059231i
61.5                                              0.9995987707518326                                0.9986257371945599-0.044094665223769515i
62                                                0.9995985800483504                                0.9986092111538977-0.044463070443555935i
62.5                                              0.9995983615491836                                0.9985925095438039-0.04483173312309387i
63                                                0.9995981213599502                                0.9985756400178158-0.045200612709908126i
63.5                                              0.9995978144652019                                0.9985585509279329-0.04556984806113784i
64                                                0.9995974773643702                                0.9985412843532847-0.0459393099132463i
64.5                                              0.9995970860955521                                0.9985238146987486-0.04630902730761747i
65                                                0.9995966335055922                                0.9985061343641889-0.04667900333980575i
65.5                                              0.9995961109751578                                0.998488234722023-0.047049231644717915i
66                                                0.9995955100426321                                0.9984701074569468-0.04741970278589967i
66.5                                              0.9995948233408651                                0.9984517455563596-0.047790403276327435i
67                                                0.9995940461165206                                0.9984331448639837-0.04816131506315077i
67.5                                              0.9995931783919924                                0.9984143062552335-0.048532415483737386i
68                                                0.9995922277178392                                0.9983952383579564-0.0489036781650621i
68.5                                              0.9995912121647615                                0.9983759604369656-0.04927507542950876i
69                                                0.9995901627393424                                0.9983565046039029-0.04964658256458736i
69.5                                              0.9995891239319435                                0.9983369160580317-0.05001818388115568i
70                                                0.9995881509732284                                0.9983172499805347-0.050389879513450614i
70.5                                              0.9995873030490733                                0.9982975644432764-0.050761690708074694i
71                                                0.9995866333707817                                0.9982779103643236-0.0511336610480131i
71.5                                              0.9995861789340027                                0.9982583214467159-0.051505851883697835i
72                                                0.9995859536602691                                0.9982388077701547-0.051878332823345724i
72.5                                              0.9995859474306773                                0.9982193553996712-0.052251170382581764i
73                                                0.9995861308737547                                0.9981999316720398-0.052624418715061565i
73.5                                              0.9995864634360216                                0.9981804935507577-0.05299811486552067i
74                                                0.9995869016148622                                0.9981609958982641-0.053372278828861454i
74.5                                              0.999587405160195                                 0.9981413975420291-0.05374691682075026i
75                                                0.9995879405287428                                0.9981216645104358-0.054122025880508365i
75.5                                              0.9995884819932593                                0.9981017709230907-0.05449759823862574i
76                                                0.9995890113502016                                0.9980816985332231-0.05487362449401135i
76.5                                              0.9995895168375808                                0.9980614355262212-0.055250095809209976i
77                                                0.9995899856431838                                0.9980409679619746-0.05562702281863648i
77.5                                              0.9995903841009048                                0.9980202562461074-0.05600450079635352i
78                                                0.9995867643467611                                0.997998074840995-0.05633419983362766i
78.5                                              0.9995913626344697                                0.9979785714019913-0.0567596976372875i
79                                                0.9995916487173058                                0.9979572428661447-0.057138477371943885i
79.5                                              0.9995919445318019                                0.9979357620584696-0.05751756581819661i
80                                                0.9995922186973165                                0.9979140914040987-0.05789706259695803i
80.5                                              0.9995924693697166                                0.997892226195119-0.05827700850247351i
81                                                0.9995926974050183                                0.9978701653583556-0.05865742743360517i
81.5                                              0.9995929044265837                                0.9978479083775478-0.05903834623806987i
82                                                0.9995930922772803                                0.997825454509525-0.059419798563401426i
82.5                                              0.9995932628250881                                0.9978028023653083-0.05980182837709158i
83                                                0.9995934179042718                                0.9977799495272426-0.06018449500458868i
83.5                                              0.9995935593379335                                0.9977568920646461-0.06056788098800178i
84                                                0.999593689039249                                 0.9977336237836576-0.06095210528460545i
84.5                                              0.9995938091948814                                0.9977101348933931-0.061337346794104346i
85                                                0.9995939225598987                                0.9976864094010386-0.06172388933912043i
85.5                                              0.9995940329588772                                0.9976624195781708-0.06211221529154065i
86                                                0.9995941462587599                                0.9976381129197895-0.06250322299386012i
86.5                                              0.9995942725682209                                0.9976133765577048-0.06289881290076753i
87                                                0.9995944303622735                                0.9975879105898527-0.06330391659486759i
87.5                                              0.9995946606250872                                0.9975606269419414-0.06373602690303286i
88                                                0.9995943032936964                                0.9975209162901668-0.06434899176239049i
88.5                                              0.9995898018651388                                0.9975337480648413-0.06407958695635531i
89                                                0.9995913151962716                                0.9975014060119788-0.06460450773698029i
89.5                                              0.9995930750616859                                0.9974724826178154-0.06507658666163386i
90                                                0.9995934190825507                                0.9974457727107353-0.06548995323427899i
90.5                                              0.9995935686952919                                0.9974194848577044-0.06589137882288507i
91                                                0.9995936446216303                                0.9973932648342182-0.0662882314690415i
91.5                                              0.9995936820800998                                0.9973669849677471-0.06668303045601155i
92                                                0.9995936950012799                                0.9973405860072047-0.06707690056284289i
92.5                                              0.9995936901354823                                0.9973140355136473-0.06747043742376471i
93                                                0.9995936697369426                                0.9972873115358418-0.06786400244445207i
93.5                                              0.9995936337655911                                0.9972603970231666-0.06825784346062183i
94                                                0.9995935772962519                                0.9972332730519279-0.06865215867004394i
94.5                                              0.9995934951055302                                0.997205920535595-0.06904713973834326i
95                                                0.999593350317323                                 0.9971782859708744-0.06944301251241547i
95.5                                              0.9995927412308655                                0.9971498868446839-0.06984090124755135i
96                                                0.9995940142512464                                0.9971236462617039-0.07023266613681414i
96.5                                              0.999593669620088                                 0.9970949475872072-0.070634055813172i
97                                                0.9995935292387786                                0.997066327116475-0.07103494229250507i
97.5                                              0.9995934724352762                                0.9970374942897466-0.07143770094030667i
98                                                0.9995919802099414                                0.9970068263449442-0.07184368532873465i
98.5                                              0.9995932306742887                                0.9969781542514118-0.0722577798946932i
99                                                0.9995890372716776                                0.9969460380262365-0.07264186601064926i
99.5                                              0.9995916522219888                                0.9969174279844752-0.07306923410508681i
100                                               0.9995916903403104                                0.9968860634967779-0.07349642034342253i
100.5                                             0.999591409657347                                 0.9968532117311092-0.07393686849018356i
101                                               0.9995908336263127                                0.9968178394272628-0.07440450032968907i
101.5                                             0.9995896205589704                                0.996776754944922-0.07493670883283557i
102                                               0.9995856973101704                                0.9967153078463136-0.07569782937368798i
102.5                                             0.999443309871571                                 0.9961805551778484-0.08069219994891026i
103                                               0.9995937054995278                                0.9968059116392518-0.07460261788514286i
103.5                                             0.99959415267151                                  0.996730406222847-0.07561062997960247i
104                                               0.9995936161205041                                0.9966857017027481-0.0761906123493337i
104.5                                             0.9995931971152031                                0.9966478561942154-0.07667861802659187i
105                                               0.9995928603823993                                0.9966125002683249-0.07713242402767335i
105.5                                             0.9995925415919833                                0.9965781904754036-0.0775703517788267i
106                                               0.9995925321210516                                0.9965447116107168-0.07799915405239281i
106.5                                             0.9995921411478814                                0.9965109329821417-0.07842454393662422i
107                                               0.9995919052302715                                0.9964773412005734-0.07884722871300033i
107.5                                             0.9995916896910333                                0.9964436560726027-0.07926907576123067i
108                                               0.9995914930561809                                0.9964097749848638-0.07969136279985486i
108.5                                             0.9995913101419825                                0.9963755500287725-0.0801158574579727i
109                                               0.9995650968625445                                0.9963121610963737-0.08057580602948715i
109.5                                             0.9995900512508977                                0.9963058796496623-0.08096211913781033i
110                                               0.9995901405201651                                0.9962704566431085-0.08139794988361487i
110.5                                             0.9995899624026904                                0.9962339940943497-0.08184083300548295i
111                                               0.9995896887678613                                0.9961960628759704-0.08229793558434635i
111.5                                             0.999589241718945                                 0.9961552612189587-0.08278494854768956i
112                                               0.9995871524790488                                0.9961025164647475-0.08339215846691289i
112.5                                             0.9995894989638128                                0.9960879553756271-0.08359396864803666i
113                                               0.9995892547326277                                0.996010663779354-0.08450701636397234i
113.5                                             0.9995714454842087                                0.9957660915762981-0.08713762387312361i
114                                               0.9995678848363511                                0.9961684961443252-0.08236676323475547i
114.5                                             0.9995829269999946                                0.9960369900996175-0.08412099799200562i
115                                               0.9994012307955132                                0.9957012241305498-0.08591793980602218i
115.5                                             0.9995845494103013                                0.9959333518501657-0.08535824560221975i
116                                               0.9995846633726319                                0.9958902949558013-0.08586046623810512i
116.5                                             0.9995845094170376                                0.9958495740832362-0.08632970094201028i
117                                               0.9995842527856026                                0.9958099103081542-0.08678306833142799i
117.5                                             0.9995839348065634                                0.9957707613469619-0.08722748173519591i
118                                               0.9995836166394106                                0.9957318975017302-0.08766638438722192i
118.5                                             0.9995833128142874                                0.9956931588410496-0.08810183138798976i
119                                               0.9995830563186456                                0.9956544702357337-0.08853509122898695i
119.5                                             0.9995828915396443                                0.9956158038514424-0.08896700613150003i
120                                               0.9995828820143468                                0.9955771712709296-0.08939817705234072i
120.5                                             0.9995831221787378                                0.9955386258848751-0.08982907388951666i
121                                               0.999583760514287                                 0.995500278905904-0.09026011844746754i
121.5                                             0.9995850499983421                                0.9954623407744735-0.09069178727974243i
122                                               0.9995875865151368                                0.9954253238598602-0.09112501157008802i
122.5                                             0.9995683727076008                                0.9953666441715996-0.09155422102715606i
123                                               0.9995915101276245                                0.9953492846114148-0.09199450387261963i
123.5                                             0.9995956036019452                                0.9953124278376242-0.09243669040111367i
124                                               0.9995967197364731                                0.9952720061554572-0.09288291485095042i
124.5                                             0.9995935345977869                                0.9952268619958995-0.09333127863418506i
125                                               0.999587128453226                                 0.9951782657131405-0.09377977831895261i
125.5                                             0.9995797110557583                                0.9951284091739407-0.09422870056015442i
126                                               0.9995725785922351                                0.9950784141979521-0.09467993172166463i
126.5                                             0.9995660023789712                                0.9950283271953074-0.09513580393724345i
127                                               0.9995597942972957                                0.994977686576584-0.09559908781134378i
127.5                                             0.9995536307189667                                0.9949257634697888-0.0960738563165151i
128                                               0.9995471109905097                                0.9948714175548218-0.09656753917302617i
128.5                                             0.9995397180015638                                0.994812567616423-0.09709584530280149i
129                                               0.9995301214679194                                0.9947435930821702-0.09770183081011069i
129.5                                             0.9995132580528381                                0.994642235112369-0.09855748147182962i
130                                               0.999394343980387                                 0.994200813724153-0.10175360814349509i
130.5                                             0.9995490264158668                                0.9948757365043688-0.09654286676806906i
131                                               0.9995303375593017                                0.9946985164875444-0.09816189178540626i
131.5                                             0.9995201313356628                                0.9946146704695357-0.0989047533338889i
132                                               0.9994710111841633                                0.9945079066536644-0.09948027845176227i
132.5                                             0.9995001184647005                                0.9944836369487992-0.10001391229243795i
133                                               0.9994740738686736                                0.9944066546154766-0.10051780733829739i
133.5                                             0.9994619674681501                                0.9943444094015969-0.10101197902771315i
134                                               0.99944875142154                                  0.9942813594477695-0.10150066488831787i
134.5                                             0.9994351034338377                                0.9942177507373365-0.10198818605405777i
135                                               0.9994216517944898                                0.9941538129036055-0.10247845805265346i
135.5                                             0.9994091970545383                                0.9940898376337867-0.10297639472436763i
136                                               0.9993988697475473                                0.9940261005864621-0.10349015511413504i
136.5                                             0.9993919494234634                                0.9939621803613683-0.10403582355950909i
137                                               0.9993903150296383                                0.9938956958858095-0.1046534637491853i
137.5                                             0.9993985065990753                                0.9938155101975109-0.10548984161199138i
138                                               0.9994707573209564                                0.9935338994033653-0.10877584969132467i
138.5                                             0.9771155907112583                                0.9734412073022469-0.08465868849063937i
139                                               0.9994715520221101                                0.9939573540480876-0.10484351021980436i
139.5                                             0.999537772549006                                 0.9938966312408692-0.10604360027969659i
140                                               0.9993488657567489                                0.9935239970902373-0.10774146228420453i
140.5                                             0.9991238657268064                                0.9934252295638913-0.10655896175736393i
141                                               0.999348736008238                                 0.993556412174304-0.10744092324895436i
141.5                                             0.9994428827158419                                0.9935652461984793-0.10823205328324648i
142                                               0.9983009617562358                                0.9925936371113897-0.10659588082758333i
142.5                                             0.9993922001008272                                0.9934235023175059-0.10906197625933739i
143                                               0.999448340375714                                 0.9933930400725716-0.10985104922185872i
143.5                                             0.9994851395996217                                0.9933392416888848-0.11066930559747201i
144                                               0.999521589637458                                 0.9932636400942452-0.11167250967951185i
144.5                                             0.9995663399734396                                0.9931260962340165-0.11328470764794646i
145                                               0.9982356176050964                                0.9906857616103443-0.12254007506918013i
145.5                                             0.9991424861352635                                0.991673289547168-0.12194176642665855i
146                                               0.9992681151975523                                0.9932614104327792-0.10940080710650595i
146.5                                             0.9993616502485079                                0.9930397749881706-0.11223062540529825i
147                                               0.9993605251855011                                0.9927320319860837-0.11491114814421541i
147.5                                             0.9986617674111595                                0.9901175834348865-0.13035527094000254i
148                                               0.9995396437925185                                0.9938244810797902-0.10673518782182656i
148.5                                             0.9995150797016923                                0.9933653777235311-0.11070510779212817i
149                                               0.9995326480472455                                0.99320419520999-0.1122984466927958i
149.5                                             0.9995365842641261                                0.9930915104791992-0.11332535063497104i
150                                               0.9995449620511138                                0.9930035734893639-0.11416669478931224i
150.5                                             0.9995610291743499                                0.9929259790290713-0.11497935124728187i
151                                               0.9994639125579325                                0.992771350222407-0.1154692975781419i
151.5                                             0.9995168433486488                                0.9927395498827873-0.11619856383005855i
152                                               0.9995274983309402                                0.9926698022769489-0.11688406036389583i