% Model:              biconAndDipole_fullFeature.mph
% Version:            COMSOL 5.6.0.401
% Date:               Jan 1 2022, 14:45
% Table:              Table 8 - tickle Z
% freq (MHz)                                      abs(emw.Zport_2) (Ω)                              Lumped port impedance (Ω)
30                                                4692.727156263634                                 90.46542348223161-4691.855088372653i
35                                                4017.934102925366                                 66.33074192698426-4017.3865495028085i
40                                                3511.121491015542                                 50.661857320619255-3510.7559728474475i
42                                                3341.9933200537625                                45.90555288272474-3341.6780263063197i
44                                                3188.153345243397                                 41.77899852076274-3187.8795880756325i
46                                                3047.5897663380074                                38.18114108008185-3047.3505844182046i
48                                                2918.6476388814644                                35.02418050992673-2918.4374837792834i
50                                                2799.93457498673                                  32.238616982640266-2799.748970136638i
50.5                                              2771.7094311356905                                31.593617317550734-2771.5293637252566i
51                                                2744.0395668160418                                30.966925976331908-2743.864827892866i
51.5                                              2716.8935852669456                                30.359104003990968-2716.7239606682074i
52                                                2690.2658082029725                                29.768785195707675-2690.1011018573195i
52.5                                              2664.139108732065                                 29.195339991660475-2663.979133326395i
53                                                2638.4918856599875                                28.639363138922512-2638.3364488958937i
53.5                                              2613.3158434271927                                28.098934574772738-2613.164776163827i
54                                                2588.5103372935578                                27.594162821499577-2588.363252801621i
54.5                                              2564.440137685072                                 27.059926293681176-2564.297365782528i
55                                                2540.5876389429914                                26.56228192618125-2540.448778528864i
55.5                                              2517.184604898239                                 26.077436226236774-2517.049523242753i
56                                                2494.1987707765957                                25.60643353876013-2494.067324413057i
56.5                                              2471.615875042161                                 25.148090774927052-2471.48793387522i
57                                                2449.4246767831796                                24.70205728357598-2449.3001154616277i
57.5                                              2427.614444772572                                 24.26796417537108-2427.493142808693i
58                                                2406.1752091843478                                23.845436485123074-2406.0570509553954i
58.5                                              2385.0973823436902                                23.434128934040313-2384.9822567188685i
59                                                2364.371706808041                                 23.033724960608875-2364.2595067946345i
59.5                                              2343.989243195433                                 22.643934329198572-2343.879865618969i
60                                                2323.9413559685486                                22.264492583305024-2323.8347011676506i
60.5                                              2304.2197018469406                                21.895161720434864-2304.1156733707708i
61                                                2284.816218783558                                 21.53573141193906-2284.7147230866585i
61.5                                              2265.723116131503                                 21.18602049903821-2265.624062263654i
62                                                2246.932872904979                                 20.845877518514552-2246.8361722055984i
62.5                                              2228.4383768752705                                20.51515010396085-2228.3439429645287i
63                                                2210.2347100220004                                20.193258527515457-2210.1424627602805i
63.5                                              2192.3082657478762                                19.881951970764973-2192.2181095986534i
64                                                2174.6589978952825                                19.579237781189043-2174.5708566461617i
64.5                                              2157.2791165864755                                19.28592022673993-2157.192907493702i
65                                                2140.162347508858                                 19.001997992023057-2140.077988711378i
65.5                                              2123.303033267173                                 18.727536253740347-2123.220443210606i
66                                                2106.695812850044                                 18.46258418832296-2106.6149104345095i
66.5                                              2090.3356506956684                                18.20713585727713-2090.2563557547574i
67                                                2074.217844042222                                 17.9610692988852-2074.1400783295244i
67.5                                              2058.338010693417                                 17.724063730219257-2058.261699548971i
68                                                2042.6920394562603                                17.495499184653564-2042.6171142840883i
68.5                                              2027.2759832404065                                17.274354686688817-2027.202384788829i
69                                                2012.0858845220237                                17.05913817562681-2012.0135666782865i
69.5                                              1997.1175403774164                                16.847896720467514-1997.0464737855345i
70                                                1982.3662514607402                                16.638355586528956-1982.296425879309i
70.5                                              1967.826642515806                                 16.42820350425372-1967.7580667156856i
71                                                1953.4926471140593                                16.215476379324404-1953.4253455544408i
71.5                                              1939.3577117824898                                15.99892332978947-1939.291718309162i
72                                                1925.415174230109                                 15.778218341493867-1925.3505241855387i
72.5                                              1911.658690235857                                 15.55393830060721-1911.5954129882225i
73                                                1898.0825620762712                                15.32733253667617-1898.0206756869989i
73.5                                              1884.6818852859637                                15.099990784099607-1884.6213940745167i
74                                                1871.4525142419384                                14.873529265087406-1871.3934089842448i
74.5                                              1858.3909143135932                                14.649370700940976-1858.333174202457i
75                                                1845.4939740902698                                14.428635434966802-1845.4375694894104i
75.5                                              1832.7588352948835                                14.212120865986346-1832.7037305500169i
76                                                1820.1827726389604                                14.000330225897539-1820.1289285556722i
76.5                                              1807.7631136016537                                13.793525927684158-1807.7104894150577i
77                                                1795.496611091629                                 13.591977624289994-1795.4451644608323i
77.5                                              1783.3773658615314                                13.396560596099503-1783.3270483092579i
78                                                1772.916882474336                                 13.353900327265428-1772.8665898788233i
78.5                                              1759.6149244781664                                13.011872932345591-1759.566814192941i
79                                                1747.932449850075                                 12.831052909628006-1747.8853547415847i
79.5                                              1736.3943899420506                                12.653421322457692-1736.3482854401827i
80                                                1724.9950585750398                                12.479793877894421-1724.9499143027517i
80.5                                              1713.7307801241946                                12.310100537437002-1713.6865664904533i
81                                                1702.5984958048452                                12.144201900152279-1702.5551845027314i
81.5                                              1691.5951541709092                                11.981940725108409-1691.5527182771934i
82                                                1680.7176031438653                                11.82315717354506-1680.6760171050544i
82.5                                              1669.9625001836575                                11.667693243351707-1669.9217397692717i
83                                                1659.3261877834566                                11.515392606961274-1659.286230039015i
83.5                                              1648.8045019302615                                11.366097258749441-1648.7653251504903i
84                                                1638.3924518815197                                11.219640444393143-1638.3540356255837i
84.5                                              1628.0836503506744                                11.075834392531954-1628.045975527622i
85                                                1617.869224682144                                 10.934448773626736-1617.8322737551068i
85.5                                              1607.735550936268                                 10.795169153356438-1607.6993083494488i
86                                                1597.6589932017046                                10.657505583887247-1597.6234462892105i
86.5                                              1587.591727611228                                 10.520556769937205-1587.5568687341106i
87                                                1577.412656960061                                 10.38227899904667-1577.3784893362104i
87.5                                              1566.6975660879618                                10.236185348142463-1566.6641261276975i
88                                                1551.7432204027737                                10.050515591843611-1551.7106718722757i
88.5                                              1558.2726036438708                                10.244650644922839-1558.2389272509565i
89                                                1545.588334683292                                 10.042509793724099-1545.555708574141i
89.5                                              1534.3561842566608                                9.855732885899636-1534.3245304354427i
90                                                1524.6517864897644                                9.72357674052697-1524.6207797684647i
90.5                                              1515.3438158702115                                9.601897726622186-1515.3133946006487i
91                                                1506.25244757255                                  9.485425727602696-1506.2225806689605i
91.5                                              1497.3153117145691                                9.372477930387078-1497.2859778119682i
92                                                1488.503873186834                                 9.26232422475319-1488.4750551628877i
92.5                                              1479.8024854576784                                9.154575849785907-1479.7741684823845i
93                                                1471.2012572935096                                9.049024684030412-1471.1734277828264i
93.5                                              1462.6931438154913                                8.945552365840374-1462.6657889134194i
94                                                1454.2724289640255                                8.844162713035956-1454.2455358125849i
94.5                                              1445.9337572204806                                8.74486752197804-1445.9073129221524i
95                                                1437.6712235190068                                8.648324379059975-1437.6452112465274i
95.5                                              1429.46015775091                                  8.562400994569238-1429.4345133256245i
96                                                1421.4691469858337                                8.441285767709354-1421.444082800031i
96.5                                              1413.371097338328                                 8.352391640944834-1413.3464176716286i
97                                                1405.3747382326192                                8.261041109243408-1405.3504580929962i
97.5                                              1397.4314206423398                                8.169146282340881-1397.4075427188327i
98                                                1389.5123373760862                                8.105796555064837-1389.4886943701854i
98.5                                              1381.53075850005                                  7.989151090144989-1381.5076583742064i
99                                                1374.2008554865959                                7.984035615728104-1374.177661874686i
99.5                                              1366.146177288253                                 7.841945565946843-1366.1236699541691i
100                                               1358.184622563623                                 7.7502244088788785-1358.1625097866245i
100.5                                             1350.0716291997026                                7.663157154242397-1350.0498805571476i
101                                               1341.5624926262633                                7.5773783855238435-1341.5410932798127i
101.5                                             1332.0065310926811                                7.491522630444817-1331.9854638704714i
102                                               1318.5704360128589                                7.409692585393118-1318.5496165040322i
102.5                                             1236.5281062963304                                8.699292600024894-1236.4975050395565i
103                                               1337.994120292776                                 7.485670611525064-1337.973180102477i
103.5                                             1320.107449260772                                 7.279330026392108-1320.0873792852308i
104                                               1310.0290176866615                                7.177985168679892-1310.0093525276823i
104.5                                             1301.6668594958785                                7.093882893470391-1301.647529070507i
105                                               1293.9856048357542                                7.016175321361462-1293.966583342094i
105.5                                             1286.658201109686                                 6.942342499251879-1286.639471788207i
106                                               1279.5635026420011                                6.866260140007968-1279.5450800050603i
106.5                                             1272.6012827919108                                6.798198377644379-1272.5831247751303i
107                                               1265.7578349945538                                6.729176566628234-1265.739947632544i
107.5                                             1259.0006265942532                                6.661053288213356-1258.9830054984118i
108                                               1252.3079310904334                                6.59362103764392-1252.2905726841568i
108.5                                             1245.6512594618941                                6.526662487626338-1245.6341609299961i
109                                               1238.4831807033224                                6.854778118212648-1238.464210585824i
109.5                                             1232.587460331993                                 6.409861891487505-1232.5707935198711i
110                                               1225.9662715949344                                6.339947450676405-1225.9498783207684i
110.5                                             1219.3097108354752                                6.274051686053648-1219.293568921419i
111                                               1212.5143170910403                                6.208459553201283-1212.4984223415418i
111.5                                             1205.3564945012135                                6.142005009951878-1205.3408458235835i
112                                               1196.5470343291374                                6.082680745364975-1196.53157348931i
112.5                                             1193.6513019206664                                6.019819768533981-1193.6361222528649i
113                                               1180.709045497401                                 5.893620416594649-1180.6943361250483i
113.5                                             1144.9136309358305                                5.776291428790616-1144.8990596380088i
114                                               1211.4694912107698                                6.518471277718453-1211.4519543368954i
114.5                                             1186.138440046444                                 6.03707505266315-1186.1230765315293i
115                                               1161.0155172842722                                8.239473897240659-1160.98628004157i
115.5                                             1168.8864336901468                                5.840821827330077-1168.8718405647608i
116                                               1162.0244768908126                                5.7710252193159395-1162.0101463245855i
116.5                                             1155.684903774569                                 5.7104018240928465-1155.6707957387528i
117                                               1149.62456741804                                  5.654177161932996-1149.6106629166839i
117.5                                             1143.7448678494943                                5.600764449110448-1143.7311546730039i
118                                               1137.9964668553052                                5.548842024528654-1137.982938768128i
118.5                                             1132.3498282073215                                5.497920910840641-1132.3364810456337i
119                                               1126.786623493386                                 5.447397846820511-1126.7734558199018i
119.5                                             1121.2946206382412                                5.396603737519533-1121.2816340867969i
120                                               1115.8650844433114                                5.344687024720656-1115.8522845790503i
120.5                                             1110.4912591855618                                5.290463962283039-1110.4786570297506i
121                                               1105.1672854587653                                5.232141797911318-1105.154900247247i
121.5                                             1099.8869681613835                                5.166725365258335-1099.8748327333617i
122                                               1094.6392495684977                                5.087169759848769-1094.6274285800253i
122.5                                             1089.464036251042                                 5.26791158315954-1089.4513001469886i
123                                               1084.254428602012                                 4.9450549901926015-1084.2431518687215i
123.5                                             1079.050314556733                                 4.85001263342524-1079.0394148141393i
124                                               1073.8453864744442                                4.790529744706459-1073.8347009094155i
124.5                                             1068.660678844118                                 4.780949587480714-1068.649984339406i
125                                               1063.5202854440422                                4.807812432426874-1063.5094181485144i
125.5                                             1058.4228222438749                                4.845248469426461-1058.4117318954654i
126                                               1053.3481027755217                                4.878348348348127-1053.3368062202057i
126.5                                             1048.2706570934479                                4.903994485573624-1048.2591861563697i
127                                               1043.1606822211181                                4.924146378380682-1043.1490601608539i
127.5                                             1037.975262457777                                 4.942012501511341-1037.963497424994i
128                                               1032.6370892406435                                4.961142599764698-1032.625171656925i
128.5                                             1026.9840720351378                                4.985291389664626-1026.9719719075265i
129                                               1020.5737632795589                                5.023635463172001-1020.561399123705i
129.5                                             1011.6527869998692                                5.109491701380736-1011.6398838218846i
130                                               979.5955221722085                                 5.936274528557234-979.5775353204887i
130.5                                             1032.9043094561794                                4.943211941673753-1032.892480923763i
131                                               1015.7678577434075                                4.9743083664218215-1015.755677848225i
131.5                                             1008.0906757708623                                5.003603163750808-1008.0782581384907i
132                                               1002.1777943576283                                5.440042675033551-1002.163029371576i
132.5                                             996.8346690255111                                 5.09221915291709-996.821662422772i
133                                               991.7850942221144                                 5.2978544925731255-991.7709442502053i
133.5                                             986.8957770242263                                 5.3641558101487385-986.8811987978572i
134                                               982.1061360714469                                 5.440219154657437-982.0910683458723i
134.5                                             977.3730417951044                                 5.518830004699771-977.3574603711756i
135                                               972.6588138551592                                 5.593526882235453-972.6427302083448i
135.5                                             967.9179475574649                                 5.656337779264557-967.9014201078446i
136                                               963.0766931980578                                 5.696147332213094-963.0598480296412i
136.5                                             957.9911059374125                                 5.70002970654094-957.9741482506358i
137                                               952.3048338327985                                 5.647616128179955-952.2880871739301i
137.5                                             944.7210356578221                                 5.484906002505049-944.7051132604987i
138                                               916.0898612261543                                 4.54988881381625-916.0785623259267i
138.5                                             1113.06809296763                                  287.4817780421093-1075.302193281658i
139                                               950.6508780410403                                 4.891445805209996-950.6382938205969i
139.5                                             939.8980680635638                                 4.1947675446597055-939.8887073876704i
140                                               924.817731743766                                  5.682938722675665-924.8002709532251i
140.5                                             934.9140053688285                                 7.781127070261927-934.8816243227279i
141                                               927.4195967535513                                 5.715988454341057-927.4019818387868i
141.5                                             920.6929063409527                                 4.832706778243304-920.6802228416476i
142                                               933.7270548516522                                 14.96577154496861-933.6071115003377i
142.5                                             913.5964381824873                                 5.183252546869977-913.5817345770233i
143                                               907.0483406372244                                 4.645873877909494-907.0364425471851i
143.5                                             900.335847950749                                  4.278191950295454-900.3256833939764i
144                                               892.2316944645183                                 3.9105231702372354-892.2231247930982i
144.5                                             879.4947104793694                                 3.4525826649449503-879.4879336489679i
145                                               811.4502243565172                                 11.745769383407662-811.3652096989579i
145.5                                             816.2726326800093                                 5.8121363538044895-816.251940232523i
146                                               910.6298079304571                                 6.182512723549361-910.6088203108316i
146.5                                             887.6174075200923                                 5.135120952773532-887.6025533229893i
147                                               866.7782604799213                                 4.9060575798640365-866.7643759636303i
147.5                                             762.7856934881481                                 7.890261040486075-762.74488393624i
148                                               933.775296458041                                  4.124073288460675-933.7661893080161i
148.5                                             900.0711270381936                                 4.032259462889883-900.0620948642533i
149                                               887.2374357869563                                 3.7796320443277276-887.2293851329672i
149.5                                             879.1499760982391                                 3.6807170210539923-879.1422710777507i
150                                               872.6366679335756                                 3.562516277535838-872.6293959637079i
150.5                                             866.4428307786383                                 3.39120828577632-866.4361942544082i
151                                               862.6543752267054                                 4.08721399068899-862.6446926629594i
151.5                                             857.2512759413584                                 3.6458404890017166-857.243523131097i
152                                               852.198840873661                                  3.52544873730239-852.1915486541814i
152.5                                             847.1344330781346                                 3.445931341147644-847.1274244550253i
153                                               841.8696713092314                                 3.3798404693307047-841.8628867866282i
153.5                                             836.1450036166082                                 3.319153725815843-836.1384157491881i