% Model:              biconAndDipole_fullFeature_addCablesV2_1.1.22.mph
% Version:            COMSOL 5.6.0.401
% Date:               Jan 5 2022, 16:50
% Table:              Table 6 - Point Evaluation 1
% freq (MHz)             abs(emw.Ex) (V/m), Point: (-0.6, 0, 0.4)abs(emw.Ex) (V/m), Point: (-0.5, 0, 0.4)abs(emw.Ex) (V/m), Point: (-0.4, 0, 0.4)abs(emw.Ex) (V/m), Point: (-0.3, 0, 0.4)abs(emw.Ex) (V/m), Point: (-0.2, 0, 0.4)abs(emw.Ex) (V/m), Point: (-0.1, 0, 0.4)abs(emw.Ex) (V/m), Point: (-1.1102E-16, 0, 0.4)abs(emw.Ex) (V/m), Point: (0.1, 0, 0.4)abs(emw.Ex) (V/m), Point: (0.2, 0, 0.4)abs(emw.Ex) (V/m), Point: (0.3, 0, 0.4)abs(emw.Ex) (V/m), Point: (0.4, 0, 0.4)abs(emw.Ex) (V/m), Point: (0.5, 0, 0.4)abs(emw.Ex) (V/m), Point: (0.6, 0, 0.4)abs(emw.Ex) (V/m), Point: (-0.6, 0.4, 2.4493E-17)abs(emw.Ex) (V/m), Point: (-0.5, 0.4, 2.4493E-17)abs(emw.Ex) (V/m), Point: (-0.4, 0.4, 2.4493E-17)abs(emw.Ex) (V/m), Point: (-0.3, 0.4, 2.4493E-17)abs(emw.Ex) (V/m), Point: (-0.2, 0.4, 2.4493E-17)abs(emw.Ex) (V/m), Point: (-0.1, 0.4, 2.4493E-17)abs(emw.Ex) (V/m), Point: (-1.1102E-16, 0.4, 2.4493E-17)abs(emw.Ex) (V/m), Point: (0.1, 0.4, 2.4493E-17)abs(emw.Ex) (V/m), Point: (0.2, 0.4, 2.4493E-17)abs(emw.Ex) (V/m), Point: (0.3, 0.4, 2.4493E-17)abs(emw.Ex) (V/m), Point: (0.4, 0.4, 2.4493E-17)abs(emw.Ex) (V/m), Point: (0.5, 0.4, 2.4493E-17)abs(emw.Ex) (V/m), Point: (0.6, 0.4, 2.4493E-17)abs(emw.Ex) (V/m), Point: (-0.6, 4.8986E-17, -0.4)abs(emw.Ex) (V/m), Point: (-0.5, 4.8986E-17, -0.4)abs(emw.Ex) (V/m), Point: (-0.4, 4.8986E-17, -0.4)abs(emw.Ex) (V/m), Point: (-0.3, 4.8986E-17, -0.4)abs(emw.Ex) (V/m), Point: (-0.2, 4.8986E-17, -0.4)abs(emw.Ex) (V/m), Point: (-0.1, 4.8986E-17, -0.4)abs(emw.Ex) (V/m), Point: (-1.1102E-16, 4.8986E-17, -0.4)abs(emw.Ex) (V/m), Point: (0.1, 4.8986E-17, -0.4)abs(emw.Ex) (V/m), Point: (0.2, 4.8986E-17, -0.4)abs(emw.Ex) (V/m), Point: (0.3, 4.8986E-17, -0.4)abs(emw.Ex) (V/m), Point: (0.4, 4.8986E-17, -0.4)abs(emw.Ex) (V/m), Point: (0.5, 4.8986E-17, -0.4)abs(emw.Ex) (V/m), Point: (0.6, 4.8986E-17, -0.4)abs(emw.Ex) (V/m), Point: (-0.6, -0.4, -7.3479E-17)abs(emw.Ex) (V/m), Point: (-0.5, -0.4, -7.3479E-17)abs(emw.Ex) (V/m), Point: (-0.4, -0.4, -7.3479E-17)abs(emw.Ex) (V/m), Point: (-0.3, -0.4, -7.3479E-17)abs(emw.Ex) (V/m), Point: (-0.2, -0.4, -7.3479E-17)abs(emw.Ex) (V/m), Point: (-0.1, -0.4, -7.3479E-17)abs(emw.Ex) (V/m), Point: (-1.1102E-16, -0.4, -7.3479E-17)abs(emw.Ex) (V/m), Point: (0.1, -0.4, -7.3479E-17)abs(emw.Ex) (V/m), Point: (0.2, -0.4, -7.3479E-17)abs(emw.Ex) (V/m), Point: (0.3, -0.4, -7.3479E-17)abs(emw.Ex) (V/m), Point: (0.4, -0.4, -7.3479E-17)abs(emw.Ex) (V/m), Point: (0.5, -0.4, -7.3479E-17)abs(emw.Ex) (V/m), Point: (0.6, -0.4, -7.3479E-17)
30                       6.392124735165072E-5     1.394434683693501E-4     2.704412700676952E-4     3.6167799390954334E-4    4.3566020045503363E-4    4.724562739049798E-4     4.7946432904275385E-4    4.5335994742830873E-4    4.1653799547873035E-4    3.761411101488447E-4     3.4741608632930863E-4    3.30449346521035E-4      3.198065494585444E-4     4.063868118435382E-5     4.432631957259694E-5     5.230275373392093E-5     6.771133954854834E-5     8.230904613879577E-5     9.343960892510188E-5     9.771355436566015E-5     9.597843767856275E-5     9.093944950801091E-5     8.765713219587869E-5     1.0193007613993266E-4    1.5187187388507876E-4    1.8120070719754422E-4    3.97995126825692E-5      4.549247797809897E-5     5.9982842967027415E-5    7.709250140507066E-5     8.843883069975529E-5     8.947119685800377E-5     7.990854861275796E-5     6.713192426194441E-5     5.6207967115900254E-5    5.432791016848846E-5     7.603274764591979E-5     1.1943195938962168E-4    1.51949413449933E-4      3.18190777314306E-5      1.3223782249968048E-4    2.0740755881677736E-4    3.2704206421712786E-4    5.029284258443872E-4     8.7009903426399E-4       NaN                      3.2038032080398634E-4    3.58838249414652E-5      9.403841191139265E-5     1.4313229500563683E-4    1.957701060676827E-4     2.2016033132496923E-4
35                       6.824638633990608E-5     2.472936069135081E-4     3.6452302698032944E-4    4.4819807367329475E-4    5.18460690880938E-4      5.495422300942782E-4     5.471700406480107E-4     5.09915773535018E-4      4.630932187291539E-4     4.160491192590271E-4     3.839577239088524E-4     3.671451805387661E-4     3.577320083685388E-4     1.0987141300147107E-4    1.0488895574048993E-4    9.496241071329545E-5     1.0501136353899586E-4    1.2110102920670004E-4    1.3304927514568197E-4    1.3667600796493407E-4    1.3182022426665908E-4    1.2300175238584866E-4    1.1561089939494944E-4    1.2645640512409654E-4    1.7728575109994473E-4    2.0923706680921086E-4    1.0509780668400554E-4    1.0383576673219543E-4    1.0936432463986842E-4    1.2329237797721265E-4    1.3390723335161378E-4    1.3279163230576986E-4    1.1607255312438609E-4    9.507601648579555E-5     7.754835036062332E-5     7.046172834016836E-5     9.08964669590883E-5      1.38530137297201E-4      1.7567536747362719E-4    1.350381699024158E-4     2.4092242295569924E-4    3.219077680507021E-4     4.67833658329672E-4      7.054271383877785E-4     0.001242981611924312     NaN                      5.964422114562084E-4     1.2475695131419E-4       5.331844834420436E-5     1.2290576850781674E-4    1.9997074067309474E-4    2.3741189495347855E-4
40                       3.333993716134688E-4     4.917425770059851E-4     5.778566130982025E-4     6.454822502158107E-4     7.021079270044363E-4     6.993919020218335E-4     6.4256427161224E-4       5.504465560547896E-4     4.630823716796269E-4     3.9695750146963424E-4    3.509750628829272E-4     3.221460072958937E-4     3.0627851530429614E-4    3.087995653715223E-4     2.7085524781347874E-4    1.841036426574246E-4     1.649774151382167E-4     1.8318325257259797E-4    1.952691062018595E-4     1.9512094872985964E-4    1.8315270650499146E-4    1.6776725909192685E-4    1.5150350770120488E-4    1.3647151351051592E-4    1.3974913093088437E-4    1.553609248030231E-4     3.052220495831219E-4     2.846482116422299E-4     2.6447538583865613E-4    2.6577440043520895E-4    2.647533080002622E-4     2.4042130916131628E-4    1.7244804642852095E-4    1.0560643756652986E-4    6.902308903630924E-5     4.4296144363966024E-5    3.190394791093987E-5     7.318826248767698E-5     1.1160115524960267E-4    4.7182798977868346E-4    6.335871405468617E-4     8.360813713559789E-4     0.0012031668615189272    0.0019028704656853257    0.0037121655796903707    NaN                      0.002930653720004613     0.001186238095291162     5.84434657101678E-4      2.636147204150192E-4     5.410821114487484E-5     8.860784935111529E-5
42                       2.1871695131844197E-4    4.275020813436967E-5     1.5963976891581423E-4    2.629542918591542E-4     3.737889762086018E-4     5.239616532551962E-4     7.070668433426208E-4     8.398971376289193E-4     9.012853842908446E-4     8.845138152544002E-4     8.85302522085182E-4      9.286457213929343E-4     9.672080679038126E-4     2.3404245604101797E-4    1.5269482183144191E-4    7.108452879950532E-5     1.7648459216703432E-4    1.9812588847912616E-4    2.1859368808137806E-4    2.3585085972314146E-4    2.3671500349339462E-4    2.240791065273683E-4     2.2037696225089392E-4    3.2316562781698556E-4    6.162725098597187E-4     7.670540621568373E-4     2.739434930361681E-4     2.3500639487360612E-4    1.7505557465554754E-4    1.4425811796956055E-4    1.137214149878423E-4     8.779933764560545E-5     2.0207493764401227E-4    3.60039690835472E-4      4.401124308707491E-4     4.843132651872521E-4     5.463508310205922E-4     6.704619388224099E-4     7.5846548280563E-4       5.586968984982541E-4     7.107458682494806E-4     0.0011610712893424255    0.0018630733511244668    0.0033339144965548254    0.0074974686241382265    NaN                      0.008411646092680396     0.0041756459144752294    0.0026335007076360704    0.0018421886721638882    0.0014210013391738662    0.0012143035267164909
44                       2.4146065288241277E-4    3.9971422691500893E-4    5.000339249714394E-4     5.764866136876033E-4     6.552476186717949E-4     7.173962820067947E-4     7.599783845152246E-4     7.57236086128535E-4      7.251806550673369E-4     6.727898067072033E-4     6.433787644207688E-4     6.474565391373654E-4     6.579092387360957E-4     1.8242195040447752E-4    1.7027601509122972E-4    1.9157063690319502E-4    2.2381326507745844E-4    2.461274036796819E-4     2.6359251914339867E-4    2.70892290384208E-4      2.6060874957082426E-4    2.4127205678655262E-4    2.248921500314041E-4     2.5853493881503357E-4    3.9363256881103624E-4    4.7173272917858046E-4    1.5600650411270412E-4    1.3520634826881637E-4    1.3261274961330502E-4    1.5476809830317794E-4    1.8431301504766537E-4    2.109166462366743E-4     2.403541401006322E-4     2.5938841236974874E-4    2.57323861477747E-4      2.577492469233998E-4     2.9248668904981526E-4    3.746937534392172E-4     4.387231719684423E-4     1.6270216562626658E-4    1.6051223909825118E-4    6.61646905745493E-5      6.412606312092197E-5     2.5698594605403046E-4    9.661510953870797E-4     NaN                      0.0019394294755534708    0.0011476761748303705    8.355188032834256E-4     6.810331334618389E-4     6.380713294034851E-4     6.192468472575976E-4
46                       3.787699588911488E-4     5.256596677213261E-4     6.112214759217245E-4     6.808997006516155E-4     7.556526686357915E-4     8.071385418520742E-4     8.310165040666592E-4     8.076942001016147E-4     7.588326434767911E-4     6.967594766353241E-4     6.609073463026911E-4     6.618982161614344E-4     6.718854834840749E-4     2.8053765028342685E-4    2.5551091696220265E-4    2.4739104273643913E-4    2.694987983853036E-4     2.9396173557927585E-4    3.124645881935806E-4     3.1865607455905105E-4    3.043352519166494E-4     2.804830994291791E-4     2.5858475482021904E-4    2.82651532647969E-4      4.0522683538642633E-4    4.8021260452591776E-4    2.519527497240144E-4     2.2362889224002757E-4    2.1035386537702913E-4    2.2662213906023696E-4    2.528714707570245E-4     2.734427343082624E-4     2.865522587142549E-4     2.8698597774481693E-4    2.716363453328877E-4     2.6305434999700266E-4    2.9388331110541047E-4    3.7613400979990945E-4    4.426292544459197E-4     3.0693760508615487E-4    3.240422012756034E-4     2.668557020838399E-4     2.584835499724565E-4     2.082130539651507E-4     1.486708947365402E-4     NaN                      0.0011947283278979498    8.216679117212275E-4     6.554117993678622E-4     5.765009202518103E-4     5.850417305623464E-4     5.933210332557388E-4
48                       5.103838478810868E-4     6.445629762350992E-4     7.169350128173784E-4     7.812496008768067E-4     8.546846697415161E-4     9.022083279178619E-4     9.172234752023202E-4     8.819436056062165E-4     8.213878928049103E-4     7.505463990670013E-4     7.094935547185673E-4     7.106797739722362E-4     7.23137580846244E-4      3.728895189123363E-4     3.355634589003747E-4     3.075025711306036E-4     3.245779568281197E-4     3.5189513755950043E-4    3.7216656567226717E-4    3.780652840668425E-4     3.5970641881330104E-4    3.306891501814216E-4     3.0292982028906737E-4    3.2186882653086003E-4    4.4486547547659355E-4    5.234459631770044E-4     3.4108217491976345E-4    3.0288020729766726E-4    2.79371905665794E-4      2.924970518427772E-4     3.188699078675468E-4     3.3815262699451846E-4    3.439299663466076E-4     3.3471584682036635E-4    3.1073901088122423E-4    2.954760654176888E-4     3.244322887308997E-4     4.110196692643033E-4     4.8311694530791795E-4    4.296752597080207E-4     4.459685944153688E-4     3.962820954719124E-4     4.1520731551785355E-4    4.242060912230883E-4     3.1775300248819275E-4    NaN                      9.300192534371054E-4     7.266851490902589E-4     6.164522988421353E-4     5.667626394106148E-4     6.010683986670111E-4     6.241065908665744E-4
50                       6.232772632504559E-4     7.481097775788338E-4     8.117413148283262E-4     8.736923971997985E-4     9.481366072877187E-4     9.945075430873329E-4     0.0010042014363377282    9.600420811990265E-4     8.896827976182992E-4     8.098965352627699E-4     7.619274358885302E-4     7.608907946255924E-4     7.741532784431181E-4     4.391240928885437E-4     3.93832862457521E-4      3.5237524492539896E-4    3.68647637219262E-4      4.0067132533781426E-4    4.243005100812347E-4     4.313451883943713E-4     4.103024964888131E-4     3.7720370733184544E-4    3.443263626910367E-4     3.587039025002401E-4     4.820825574265677E-4     5.638432593372982E-4     3.82169816135313E-4      3.4112202487124305E-4    3.1496921455024737E-4    3.31725040090572E-4      3.6337224194389454E-4    3.853058521700472E-4     3.881859621927179E-4     3.734472775738184E-4     3.4351124734724914E-4    3.23196965641522E-4      3.509289160114625E-4     4.4148022844375616E-4    5.180247181622857E-4     5.247105992437917E-4     5.391454272223161E-4     4.937259567887159E-4     5.323153575233461E-4     5.837553443399153E-4     5.839381796033703E-4     NaN                      7.876063700278591E-4     6.87785599894884E-4      6.099940985217006E-4     5.762022518626302E-4     6.262868229398344E-4     6.590591131751662E-4
50.5                     6.924633551884593E-4     8.08983717613742E-4      8.645600085015873E-4     9.229455333361517E-4     9.964913438207906E-4     0.0010420274745993282    0.0010493913731772346    0.0010012134833863422    9.262046473330547E-4     8.427925269309686E-4     7.942481464777762E-4     7.967388642852511E-4     8.137510256503676E-4     5.00216546025647E-4      4.46632164720969E-4      3.956332816518258E-4     4.0859655450426017E-4    4.4077068053460257E-4    4.6422195107695695E-4    4.702886547468338E-4     4.461776950546725E-4     4.093902209096959E-4     3.7285896938129653E-4    3.8609350870604577E-4    5.150378390150966E-4     6.015541290057948E-4     4.5995545298251154E-4    4.0831285757532556E-4    3.720005359211125E-4     3.829039092178707E-4     4.1185144046600755E-4    4.3221354856863255E-4    4.323245995671227E-4     4.1378353723678753E-4    3.796411570448949E-4     3.5570964891497905E-4    3.8244615616848997E-4    4.7649523096764037E-4    5.574334988254307E-4     5.892888991635352E-4     5.964393477452786E-4     5.44272566012496E-4      5.832961775467565E-4     6.412550664508623E-4     6.590442120714316E-4     NaN                      7.925353268353503E-4     7.067551463173632E-4     6.315193511864922E-4     6.001464475541435E-4     6.580012758409899E-4     6.956983672222835E-4
51                       7.36194661787676E-4      8.483380635686323E-4     8.999503279187878E-4     9.570368163499556E-4     0.0010307513863275811    0.0010760813400458756    0.0010819666502506454    0.0010309712017282137    9.526048814509668E-4     8.661455486571697E-4     8.158923758509077E-4     8.190043469658331E-4     8.373583901545046E-4     5.324602864450917E-4     4.747353110260066E-4     4.182758088922713E-4     4.30260621834899E-4      4.6356608768737803E-4    4.8775582658297013E-4    4.93839627790325E-4      4.6827443634857915E-4    4.295169887480126E-4     3.907942409544887E-4     4.028195993002852E-4     5.338035519898245E-4     6.226061747690344E-4     4.91998137403381E-4      4.3638237844939695E-4    3.9633556897145116E-4    4.063053373573627E-4     4.357222169079137E-4     4.5642321027017667E-4    4.554746243104956E-4     4.3498330266295005E-4    3.985221132604811E-4     3.7257182043681124E-4    3.9886320865104935E-4    4.949417531925843E-4     5.782928143071131E-4     6.273566445367105E-4     6.314025629881861E-4     5.77330102261792E-4      6.193840726296375E-4     6.855313551147E-4        7.239081917764864E-4     NaN                      7.801554525055578E-4     7.120073461247679E-4     6.413709307174259E-4     6.124984082050039E-4     6.751206698257761E-4     7.159352214865676E-4
51.5                     7.812582082912435E-4     8.890127373350038E-4     9.367069458595079E-4     9.925776575811112E-4     0.0010665415241602068    0.0011117007026639758    0.001116085458662319     0.0010621583342913033    9.802572612271016E-4     8.905353984515507E-4     8.38394368368099E-4      8.420354546621317E-4     8.616624881007961E-4     5.654024148453062E-4     5.035160187171929E-4     4.415669837683709E-4     4.526517681530324E-4     4.8718965048730466E-4    5.121843644910775E-4     5.183206894760591E-4     4.912527855290244E-4     4.504451240033505E-4     4.0942745577617285E-4    4.201405198647315E-4     5.53144397315249E-4      6.442549818615607E-4     5.239671860052216E-4     4.6449249817887597E-4    4.208310847665336E-4     4.3003952068201823E-4    4.6009568501095415E-4    4.8126053583123286E-4    4.793261224542736E-4     4.569009199930843E-4     4.180808302660558E-4     3.900297676294913E-4     4.1579021617675524E-4    5.138724831606116E-4     5.996352213638618E-4     6.661802334937753E-4     6.670367952264863E-4     6.109906166358068E-4     6.560246573062787E-4     7.302004196274674E-4     7.885335851336608E-4     NaN                      7.70182874226157E-4      7.187821379936693E-4     6.52333781341141E-4      6.257139217727441E-4     6.930313240841001E-4     7.369306790508724E-4
52                       8.289025645082484E-4     9.321295005804931E-4     9.758463906845216E-4     0.0010305444100363343    0.001104813841143913     0.0011497937151904707    0.0011525739934590132    0.0010954819997047007    0.0010097291747652747    9.164077694947382E-4     8.621513831622788E-4     8.662646960274651E-4     8.871050159121218E-4     6.002535988685052E-4     5.34008978564202E-4      4.6632318718369876E-4    4.764938936897766E-4     5.123524423129068E-4     5.381996936239936E-4     5.443850842045534E-4     5.157012646351346E-4     4.7268694600277405E-4    4.2918946706206205E-4    4.3844896367298204E-4    5.735222517117149E-4     6.670169331750229E-4     5.575447466113979E-4     4.9403328562391E-4       4.46575510166088E-4      4.5501157051738253E-4    4.857905304715809E-4     5.07510707059613E-4      5.046223510063326E-4     4.802262255527452E-4     4.389401252143265E-4     4.086444553093221E-4     4.3375351372840334E-4    5.338343528377074E-4     6.220632036556192E-4     7.068868366207551E-4     7.043114147504627E-4     6.460729209296826E-4     6.940072832344557E-4     7.760806798664736E-4     8.538424066589971E-4     NaN                      7.629363842460832E-4     7.274481574740105E-4     6.647548469263969E-4     6.401355284474232E-4     7.121693683617744E-4     7.5916728482921E-4
52.5                     8.803743500664986E-4     9.788894698716487E-4     0.001018558468724937     0.0010721313061114986    0.0011467386009728396    0.0011914515462689553    0.0011923889097697003    0.001131702496659683     0.0010415599340529433    9.440912940964466E-4     8.8736049816151E-4       8.91818113315386E-4      9.13693601586077E-4      6.379201355700235E-4     5.670062618013185E-4     4.931775713194518E-4     5.023596099418533E-4     5.396219690766613E-4     5.663466818141633E-4     5.72549958077448E-4      5.420597533444445E-4     4.965943552627883E-4     4.5034136278808965E-4    4.579121352588547E-4     5.950663252880191E-4     6.909926559235343E-4     5.936651041662599E-4     5.25780667000269E-4      4.7415960712846657E-4    4.817115212980383E-4     5.13269865907763E-4      5.356342046601044E-4     5.318119264056914E-4     5.053732084535859E-4     4.614692284295565E-4     4.2871351309648403E-4    4.529500835898575E-4     5.54954433910639E-4      6.456738226376827E-4     7.503765373918439E-4     7.440340933006401E-4     6.833056334293422E-4     7.340537695602168E-4     8.239741209853226E-4     9.20810560030464E-4      NaN                      7.584103628735921E-4     7.381539234751697E-4     6.787498441139336E-4     6.558420873825951E-4     7.326322843501509E-4     7.827233661026728E-4
53                       9.384179958467411E-4     0.0010320163451253497    0.0010676042245025444    0.001120135780188741     0.0011950532213075467    0.001239196467083987     0.0012377135126980473    0.0011725249414093703    0.0010768895314892763    9.741840429473607E-4     9.142558456042081E-4     9.187095529085234E-4     9.410670765140887E-4     6.801584825551322E-4     6.040650271024734E-4     5.233924862741276E-4     5.31394918627731E-4      5.701303566088962E-4     5.977013992104193E-4     6.037861590709374E-4     5.71126960221677E-4      5.227623003658467E-4     4.732433773968667E-4     4.786691935988985E-4     6.17797380578749E-4      7.16083305583774E-4      6.339071341926796E-4     5.610318375224578E-4     5.045120875783513E-4     5.108678017973591E-4     5.432134065837969E-4     5.663420619558944E-4     5.616124159145154E-4     5.33031153866172E-4      4.862673896657279E-4     4.506750922511849E-4     4.735731950990438E-4     5.771702049906632E-4     6.702697970780374E-4     7.984232049288604E-4     7.877852640593527E-4     7.240221770574022E-4     7.774288688352899E-4     8.751059470222171E-4     9.905923115511267E-4     NaN                      7.574027002442274E-4     7.514385431102661E-4     6.946367038144917E-4     6.72939063676282E-4      7.544190660797118E-4     8.074504195908757E-4
53.5                     0.001013857031926683     0.0011022663210449215    0.001133935373082686     0.001185650196456706     0.0012605733762655576    0.00130296083188472      0.0012971033996222608    0.001224547731709189     0.001120043260034333     0.001008807789583874     9.434737030587232E-4     9.465871604069689E-4     9.672531545386908E-4     7.336400508143639E-4     6.510878683699821E-4     5.617660794260093E-4     5.679458847003751E-4     6.081269593472478E-4     6.362427301324823E-4     6.416847737499856E-4     6.057725232983783E-4     5.532338918088266E-4     4.990319982537695E-4     5.009332224527285E-4     6.413803510892196E-4     7.413917512741697E-4     6.840613461717041E-4     6.0449313470117E-4       5.409067016912188E-4     5.4497126091072E-4       5.779402130758892E-4     6.020576874906212E-4     5.96502878372995E-4      5.655771854174917E-4     5.154050199478687E-4     4.759646785804924E-4     4.959878676634616E-4     5.99755868697809E-4      6.944812881609559E-4     8.578217377982525E-4     8.415693094195421E-4     7.732253570233859E-4     8.287117672578935E-4     9.338226639898921E-4     0.001066871115593783     NaN                      7.633740149177012E-4     7.695386090657642E-4     7.135631453873184E-4     6.916114451273527E-4     7.771358364286814E-4     8.322705460793958E-4
54                       0.001271132927688479     0.0013519413038204449    0.001381763785521956     0.0014341679287732019    0.0015041294474261047    0.0015301021928715867    0.001497341230031584     0.0013854526915809077    0.001234823356274736     0.0010787261564302558    9.826853761349928E-4     9.666744090660218E-4     9.569450560563399E-4     8.990912812082694E-4     7.96686367905134E-4      6.792558379975606E-4     6.757444806618929E-4     7.156313684385991E-4     7.39845171558208E-4      7.382040920716603E-4     6.873505296225865E-4     6.172109471179515E-4     5.434052782311127E-4     5.260783276744606E-4     6.572405787880857E-4     7.483958323688349E-4     8.307938925093069E-4     7.257029954774746E-4     6.304975700797021E-4     6.192669632290965E-4     6.501903186132843E-4     6.772006258880037E-4     6.718831119968763E-4     6.37149367788686E-4      5.78570977319289E-4      5.248522763436869E-4     5.237722622458181E-4     6.078311082684313E-4     6.92093167520796E-4      0.0010306254224866484    9.945044151540106E-4     9.033848751114042E-4     9.530680148889616E-4     0.0010601937391585142    0.0011961347281625922    NaN                      8.34516180215621E-4      8.283073645234235E-4     7.539376193212888E-4     7.142101097762267E-4     7.915275578886331E-4     8.357655574988521E-4
54.5                     9.707503130184002E-4     0.0010475205759687795    0.0010656704405769555    0.0011123342700384284    0.0011926752259778714    0.0012488114393375594    0.0012606543390124506    0.0012106100343298421    0.0011315895120731336    0.0010449721184472586    9.964485886566005E-4     0.0010152163726376321    0.0010632827013724133    7.255625603820616E-4     6.427922265579462E-4     5.538600505204794E-4     5.642777595904603E-4     6.097650247558417E-4     6.447357172689437E-4     6.568761335744815E-4     6.28287363871238E-4      5.830692181234506E-4     5.364998773471892E-4     5.479906363943662E-4     7.002792455649225E-4     8.14357781488732E-4      6.857250336771005E-4     6.116028472654036E-4     5.5968731700018E-4       5.741141307895295E-4     6.120997242117837E-4     6.363784929235798E-4     6.277731794416822E-4     5.933958539302976E-4     5.416047440293895E-4     5.060274187920635E-4     5.402033151823388E-4     6.648683177793332E-4     7.752211182402626E-4     8.57632421033513E-4      8.438964737143128E-4     7.85589222091045E-4      8.546432807737403E-4     9.8214959380571E-4       0.0011699123519586265    NaN                      7.046014480232389E-4     7.650907845617073E-4     7.331699927805187E-4     7.298196575473023E-4     8.355153767446947E-4     9.084703651825052E-4
55                       0.001084869095000937     0.001156291399752328     0.0011712695466869405    0.0012180293167617143    0.0012980191192137301    0.0013499360461303844    0.001353083497955661     0.0012892385214962508    0.0011937682642361282    0.0010913292720463733    0.0010328064269108765    0.0010479766003997136    0.0010904928084091666    8.048771395279343E-4     7.12969182535784E-4      6.116654308783108E-4     6.190326080870402E-4     6.661388949815148E-4     7.011404506026893E-4     7.115550049904115E-4     6.772491681267801E-4     6.249258608065525E-4     5.704422988946399E-4     5.754982003940854E-4     7.282894287977681E-4     8.433573617011344E-4     7.590586422233538E-4     6.748060769920939E-4     6.113818131552852E-4     6.212358718326478E-4     6.59536182030648E-4      6.853348159868902E-4     6.760074152269646E-4     6.386792464038182E-4     5.82095351832978E-4      5.403257137232004E-4     5.685363335315042E-4     6.91097691661987E-4      8.021496243912065E-4     9.43177943853858E-4      9.213036573683423E-4     8.557115835805807E-4     9.261297157047626E-4     0.0010611151613362094    0.001265817070799332     NaN                      7.245662253298129E-4     7.939406788152483E-4     7.594177874418376E-4     7.532755039960466E-4     8.629438056029805E-4     9.369980360297244E-4
55.5                     0.0011618532281144954    0.0012271572360712049    0.001237405981658623     0.001283382632230328     0.001364097877200401     0.0014153421915779822    0.001415173729140397     0.001345077085026405     0.0012419078810264543    0.0011320314873608382    0.0010689401288823265    0.0010840635876347496    0.0011271456865488874    8.629818285440546E-4     7.641295506611696E-4     6.533103908780653E-4     6.590261366540848E-4     7.083398478591976E-4     7.446573540355661E-4     7.550653354924482E-4     7.1790334201063E-4       6.616748784617225E-4     6.026837522366469E-4     6.044622307579193E-4     7.592422597403908E-4     8.773348028204802E-4     8.142936769166096E-4     7.233719425280213E-4     6.533628898921715E-4     6.616686975900517E-4     7.011286427089095E-4     7.281104669727747E-4     7.177127548990869E-4     6.775689001909605E-4     6.171404496860508E-4     5.714338731657144E-4     5.975965122735519E-4     7.220675907052268E-4     8.362636047934539E-4     0.00100628321189468      9.78807692559861E-4      9.098625824343678E-4     9.838184786234256E-4     0.001128351596922117     0.0013552728903369552    NaN                      7.289747521735409E-4     8.145830454441373E-4     7.823380112998175E-4     7.774126713723125E-4     8.936327043045937E-4     9.715700672083002E-4
56                       0.001234266401524324     0.0012930817144514426    0.0012981511775316578    0.0013432256402725125    0.0014250035306463242    0.001476325596145112     0.0014738357421643987    0.0013987912767727954    0.0012894086130327157    0.0011735285167181796    0.0011068161907550795    0.0011227032936134054    0.0011677599159693863    9.196181927110744E-4     8.139562500634878E-4     6.936159428577113E-4     6.978710225386809E-4     7.496906983574372E-4     7.877354581545527E-4     7.98565276120627E-4      7.590761772028622E-4     6.994809459756056E-4     6.365023582954098E-4     6.354478583773635E-4     7.924570334639788E-4     9.141501889752666E-4     8.685418146444308E-4     7.714086283933336E-4     6.955919130390017E-4     7.029605655994397E-4     7.438311464670008E-4     7.719962778775784E-4     7.603859669568961E-4     7.172937009204813E-4     6.530143791967154E-4     6.036497397841985E-4     6.285132970346221E-4     7.558597346391285E-4     8.739218757170484E-4     0.0010673423120200433    0.00103466906049196      9.633710805607991E-4     0.0010417034744212132    0.0011968404065767642    0.001448575386881113     NaN                      7.296772245396676E-4     8.341894004805051E-4     8.055160201765078E-4     8.028915628334279E-4     9.268108075577211E-4     0.0010095158717035905