% Model:              biconAndDipole_fullFeature_addCablesV2_1.1.22.mph
% Version:            COMSOL 5.6.0.401
% Date:               Jan 5 2022, 16:51
% Table:              Table 7 - Ex complex
% freq (MHz)                                      (emw.Ex) (V/m), Point: (-0.6, 0, 0.4)             (emw.Ex) (V/m), Point: (-0.5, 0, 0.4)             (emw.Ex) (V/m), Point: (-0.4, 0, 0.4)             (emw.Ex) (V/m), Point: (-0.3, 0, 0.4)             (emw.Ex) (V/m), Point: (-0.2, 0, 0.4)             (emw.Ex) (V/m), Point: (-0.1, 0, 0.4)             (emw.Ex) (V/m), Point: (-1.1102E-16, 0, 0.4)      (emw.Ex) (V/m), Point: (0.1, 0, 0.4)              (emw.Ex) (V/m), Point: (0.2, 0, 0.4)              (emw.Ex) (V/m), Point: (0.3, 0, 0.4)              (emw.Ex) (V/m), Point: (0.4, 0, 0.4)              (emw.Ex) (V/m), Point: (0.5, 0, 0.4)              (emw.Ex) (V/m), Point: (0.6, 0, 0.4)              (emw.Ex) (V/m), Point: (-0.6, 0.4, 2.4493E-17)    (emw.Ex) (V/m), Point: (-0.5, 0.4, 2.4493E-17)    (emw.Ex) (V/m), Point: (-0.4, 0.4, 2.4493E-17)    (emw.Ex) (V/m), Point: (-0.3, 0.4, 2.4493E-17)    (emw.Ex) (V/m), Point: (-0.2, 0.4, 2.4493E-17)    (emw.Ex) (V/m), Point: (-0.1, 0.4, 2.4493E-17)    (emw.Ex) (V/m), Point: (-1.1102E-16, 0.4, 2.4493E-17)(emw.Ex) (V/m), Point: (0.1, 0.4, 2.4493E-17)     (emw.Ex) (V/m), Point: (0.2, 0.4, 2.4493E-17)     (emw.Ex) (V/m), Point: (0.3, 0.4, 2.4493E-17)     (emw.Ex) (V/m), Point: (0.4, 0.4, 2.4493E-17)     (emw.Ex) (V/m), Point: (0.5, 0.4, 2.4493E-17)     (emw.Ex) (V/m), Point: (0.6, 0.4, 2.4493E-17)     (emw.Ex) (V/m), Point: (-0.6, 4.8986E-17, -0.4)   (emw.Ex) (V/m), Point: (-0.5, 4.8986E-17, -0.4)   (emw.Ex) (V/m), Point: (-0.4, 4.8986E-17, -0.4)   (emw.Ex) (V/m), Point: (-0.3, 4.8986E-17, -0.4)   (emw.Ex) (V/m), Point: (-0.2, 4.8986E-17, -0.4)   (emw.Ex) (V/m), Point: (-0.1, 4.8986E-17, -0.4)   (emw.Ex) (V/m), Point: (-1.1102E-16, 4.8986E-17, -0.4)(emw.Ex) (V/m), Point: (0.1, 4.8986E-17, -0.4)    (emw.Ex) (V/m), Point: (0.2, 4.8986E-17, -0.4)    (emw.Ex) (V/m), Point: (0.3, 4.8986E-17, -0.4)    (emw.Ex) (V/m), Point: (0.4, 4.8986E-17, -0.4)    (emw.Ex) (V/m), Point: (0.5, 4.8986E-17, -0.4)    (emw.Ex) (V/m), Point: (0.6, 4.8986E-17, -0.4)    (emw.Ex) (V/m), Point: (-0.6, -0.4, -7.3479E-17)  (emw.Ex) (V/m), Point: (-0.5, -0.4, -7.3479E-17)  (emw.Ex) (V/m), Point: (-0.4, -0.4, -7.3479E-17)  (emw.Ex) (V/m), Point: (-0.3, -0.4, -7.3479E-17)  (emw.Ex) (V/m), Point: (-0.2, -0.4, -7.3479E-17)  (emw.Ex) (V/m), Point: (-0.1, -0.4, -7.3479E-17)  (emw.Ex) (V/m), Point: (-1.1102E-16, -0.4, -7.3479E-17)(emw.Ex) (V/m), Point: (0.1, -0.4, -7.3479E-17)   (emw.Ex) (V/m), Point: (0.2, -0.4, -7.3479E-17)   (emw.Ex) (V/m), Point: (0.3, -0.4, -7.3479E-17)   (emw.Ex) (V/m), Point: (0.4, -0.4, -7.3479E-17)   (emw.Ex) (V/m), Point: (0.5, -0.4, -7.3479E-17)   (emw.Ex) (V/m), Point: (0.6, -0.4, -7.3479E-17)
30                                                6.042786600957174E-5+2.0842237704242748E-5i       -1.3902478539391686E-4+1.0797681095925578E-5i     -2.703741664477144E-4-6.024174095400651E-6i       -3.61110889939661E-4-2.0245899471688592E-5i       -4.346117914755509E-4-3.0205975748721364E-5i      -4.7108329650271834E-4-3.59924784963368E-5i       -4.779525131364182E-4-3.80452100927317E-5i        -4.519342031238843E-4-3.5926563695663614E-5i      -4.15423170114409E-4-3.0454743629417927E-5i       -3.755703041160902E-4-2.0714280343589595E-5i      -3.4737941227492593E-4-5.047867658791425E-6i      -3.3020314229068395E-4+1.2753644088548289E-5i     -3.1887731312350506E-4+2.4361614308467674E-5i     -3.2145655939399786E-5+2.4862807818693462E-5i     -4.215462440319881E-5+1.370438792056125E-5i       -5.088399495714862E-5-1.209946715157546E-5i       -6.195573511745087E-5-2.7318718665323075E-5i      -7.432582313523401E-5-3.5361717881747844E-5i      -8.410547218485657E-5-4.0709090687932315E-5i      -8.751383581412001E-5-4.3465701971440284E-5i      -8.702077045532807E-5-4.048760314687518E-5i       -8.36878375198051E-5-3.558552132649973E-5i        -8.348589160233176E-5-2.6718509093313283E-5i      -1.013097461556671E-4-1.1228346083318194E-5i      -1.5125840785206162E-4+1.3636719965763556E-5i     -1.7922311136569087E-4+2.6697802180916005E-5i     -3.3282604984203085E-5+2.1823597669391877E-5i     -4.443876366741834E-5+9.734569137828315E-6i       -5.941107341985412E-5-8.26231235840028E-6i        -7.338993856996992E-5-2.3604463340369832E-5i      -8.136388303249108E-5-3.466042863865201E-5i       -7.981855256433291E-5-4.04239252638643E-5i        -6.795993451009805E-5-4.203359897487588E-5i       -5.387218950754318E-5-4.005599147162375E-5i       -4.4522157655987866E-5-3.4309081085879953E-5i     -4.884943628846011E-5-2.3775079338984935E-5i      -7.564476290232952E-5-7.671281512138162E-6i       -1.1896700555086866E-4+1.0528272123374576E-5i     -1.5024313392294312E-4+2.270737670430604E-5i      -2.0530171230687193E-5+2.4309787677342778E-5i     -1.3160540574285793E-4+1.2917386682868193E-5i     -2.0715566102719808E-4-1.0218980317016504E-5i     -3.262112716137363E-4-2.3296309569310516E-5i      -5.020099369366651E-4-3.038132220886572E-5i       -8.695186970686297E-4-3.177365064327008E-5i       NaN                                               3.172987096309347E-4-4.4329209614079114E-5i       5.05056486263216E-6-3.552661941415289E-5i         -9.024195906678873E-5-2.645017464223592E-5i       -1.4277413565114773E-4-1.0119291608028674E-5i     -1.952302216890715E-4+1.4529107645954272E-5i      -2.1861833107061213E-4+2.6011474564515803E-5i
35                                                -5.868104446024479E-5+3.4843999045897345E-5i      -2.4654664687761484E-4+1.920622122379521E-5i      -3.6447227237514004E-4-6.08275172958006E-6i       -4.4737873566209516E-4-2.7088376138804398E-5i     -5.167929639373071E-4-4.155141891238672E-5i       -5.472799244749375E-4-4.981311999563352E-5i       -5.446177715909267E-4-5.278765243955061E-5i       -5.074670342343581E-4-4.991297692184436E-5i       -4.611590863367517E-4-4.2280330201884493E-5i      -4.1508070728982086E-4-2.837033789002546E-5i      -3.8391688517579945E-4-5.599913050978355E-6i      -3.6656755335118826E-4+2.05867050050973E-5i       -3.5573102351095086E-4+3.778397442355202E-5i      -1.024091972623056E-4+3.9800549129754545E-5i      -1.0230193986189503E-4+2.3151806340406116E-5i     -9.376269892218028E-5-1.5047117308945996E-5i      -9.817620715697092E-5-3.72668595482727E-5i        -1.1091552876072737E-4-4.861280443103723E-5i      -1.2064630007202197E-4-5.60943838162344E-5i       -1.2282775029578876E-4-5.9947267748464405E-5i     -1.1941052705486191E-4-5.583634617516073E-5i      -1.1279719727823564E-4-4.9053270799860176E-5i     -1.0968596654361308E-4-3.6535856392077514E-5i     -1.2566087553299592E-4-1.4162159340670383E-5i     -1.7588349889343868E-4+2.2253816752937078E-5i     -2.0508296920928372E-4+4.148645402087471E-5i      -9.898500355081072E-5+3.5320221429580395E-5i      -1.0237774362246696E-4+1.7339667345002014E-5i     -1.08972555679105E-4-9.248654642643586E-6i        -1.1917710434888354E-4-3.158841981314029E-5i      -1.2523094185096445E-4-4.7416857202938976E-5i     -1.2063312973664875E-4-5.5509148978989504E-5i     -1.0066312896422569E-4-5.779076099122679E-5i      -7.748168919821914E-5-5.5100242738102714E-5i      -6.160394061401148E-5-4.7103090604325894E-5i      -6.270160770523372E-5-3.214597256053486E-5i       -9.046252392641286E-5-8.87127220345599E-6i        -1.373863600009188E-4+1.776476921548075E-5i       -1.7201021365268037E-4+3.569763488178444E-5i      -1.29138011482592E-4+3.948013830922648E-5i        -2.398904986360016E-4+2.2274706440609743E-5i      -3.2168757856618115E-4-1.1904323904012715E-5i     -4.66812408932863E-4-3.0895092367911525E-5i       -7.042563235503353E-4-4.062607922671543E-5i       -0.0012422924632173131-4.138506270892666E-5i      NaN                                               5.930114559929724E-4-6.388054999659412E-5i        1.1414409381926068E-4-5.035298151441473E-5i       -3.830206176428528E-5-3.7091899364126176E-5i      -1.22196309070699E-4-1.3186735077161555E-5i       -1.9862380520013374E-4+2.3170695569305553E-5i     -2.3398432299103953E-4+4.019632395911876E-5i
40                                                -3.2790423959141746E-4+6.028225817129083E-5i      -4.904337017218602E-4+3.585451513938937E-5i       -5.778516456570076E-4-2.396020203130661E-6i       -6.446138303681309E-4-3.347155571217179E-5i       -6.99991030268837E-4-5.448025977947498E-5i        -6.962182312979185E-4-6.65522878804022E-5i        -6.38577400069285E-4-7.146850546444077E-5i        -5.461964270610312E-4-6.82705949757456E-5i        -4.5941268343617557E-4-5.8183066766890365E-5i     -3.9507939355705674E-4-3.856852031907547E-5i      -3.509305889204948E-4-5.5871750992284304E-6i      -3.204624227124387E-4+3.289203012828837E-5i       -3.0066450201721433E-4+5.837282041964793E-5i      -3.0160167752658684E-4+6.628423407409785E-5i      -2.677348078815754E-4+4.099558411240054E-5i       -1.8335218765767883E-4-1.6617055120448177E-5i     -1.5739943991929838E-4-4.942634741490281E-5i      -1.7115697641180858E-4-6.52793493276688E-5i       -1.8002718686943044E-4-7.563224064347333E-5i      -1.7751537781374722E-4-8.099676087895794E-5i      -1.6689366087678414E-4-7.544149958244805E-5i      -1.5415158089044005E-4-6.620531196358664E-5i      -1.4346179972434155E-4-4.870343792405178E-5i      -1.354471021585767E-4-1.6690012483369076E-5i      -1.35003187454683E-4+3.611037209740687E-5i        -1.4145758601580578E-4+6.423992772592063E-5i      -2.9929953798818937E-4+5.983549207433774E-5i      -2.827516539332017E-4+3.280406360740536E-5i       -2.6438678943278127E-4-6.8450922515485934E-6i     -2.6282254871540174E-4-3.9501136862564725E-5i     -2.57338241359432E-4-6.22201223971508E-5i         -2.2882251213382382E-4-7.377441182149314E-5i      -1.5396936810047342E-4-7.766442173707494E-5i      -7.459679113184522E-5-7.475318326549865E-5i       -2.553079373634939E-5-6.412772716466924E-5i       -9.915112393019143E-6-4.3172201145495435E-5i      -3.0417660036448928E-5-9.624336351717045E-6i      -6.706316937810313E-5+2.9309607280360425E-5i      -9.668403871806574E-5+5.574060019599253E-5i       -4.669285746106368E-4+6.781856789016125E-5i       -6.321506745456138E-4+4.2640231447239986E-5i      -8.360582015036405E-4-6.224405754158098E-6i       -0.0012027725594340585-3.0800437168158204E-5i     -0.0019024926160827963-3.791905758224666E-5i      -0.0037121094836713117-2.0407652374886594E-5i     NaN                                               0.0029281116573250865-1.2203830879609395E-4i      0.0011832046292904958-8.47798557768537E-5i        5.813920295655346E-4-5.9558176426284424E-5i       2.6273965488638287E-4-2.146146709041984E-5i       4.193049909573914E-5+3.4198417490880734E-5i       -6.476101289997288E-5+6.047612896672115E-5i
42                                                2.0637225797485583E-4+7.244029218876239E-5i       -5.040746709323882E-6+4.245198662188105E-5i       -1.5959080182869451E-4-3.953706004361758E-6i      -2.5965901875298026E-4-4.149883838601648E-5i      -3.6784568334467436E-4-6.639090283889997E-5i      -5.17889671466907E-4-7.953679821200713E-5i        -7.021244442913068E-4-8.34552915225984E-5i        -8.362770682040216E-4-7.789651464178535E-5i       -8.989561907915659E-4-6.475423518051327E-5i       -8.835708514533956E-4-4.083184832721518E-5i       -8.853023746288688E-4-5.10966603895595E-7i        -9.274556121907982E-4+4.699960933024099E-5i       -9.640044120022169E-4+7.865710558167111E-5i       2.200827051938111E-4+7.962081451659393E-5i        1.4444837837731514E-4+4.950125855268514E-5i       -6.863729916289342E-5-1.8491387137561405E-5i      -1.6693324461240961E-4-5.727218448372511E-5i      -1.8293782387510983E-4-7.60764108083605E-5i       -1.999968043227015E-4-8.822969301616011E-5i       -2.1613581915404614E-4-9.439775267851673E-5i      -2.1985310790418824E-4-8.774168806073423E-5i      -2.1048969166288494E-4-7.684748327542869E-5i      -2.1316936655665084E-4-5.5900148951216165E-5i     -3.227533124468893E-4-1.6319384391179657E-5i      -6.142206540346994E-4+5.024733391915722E-5i       -7.6224932069138E-4+8.571993570246593E-5i         2.6444840767404434E-4+7.149879058781006E-5i       2.3178199292084813E-4+3.8795790868716575E-5i      1.748247815281062E-4-8.986099355889242E-6i        1.3596547315928567E-4-4.82057538960985E-5i        8.548368787087039E-5-7.500066222929402E-5i        -3.4043655387463903E-6-8.77333117252827E-5i       -1.80769631897696E-4-9.031401113560915E-5i        -3.498793974375671E-4-8.492930133721341E-5i       -4.342960527046608E-4-7.131542899057968E-5i       -4.821457217521596E-4-4.576944212492246E-5i       -5.463286691803424E-4-4.920954026165383E-6i       -6.690745068951291E-4+4.311050489781739E-5i       -7.546666894506968E-4+7.581606980781149E-5i       5.532961377148891E-4+7.749586041431471E-5i        7.093901519220694E-4+4.3878258735863615E-5i       0.0011608804749730886-2.1049032318345145E-5i      0.001862125359451608-5.9426066312440134E-5i       0.003332826279711274-8.517546362844958E-5i        0.007496639024013899-1.1153077408987357E-4i       NaN                                               -0.008411470573328987-5.433951164566786E-5i       -0.004175251360061263-5.7401074730770523E-5i      -0.002633127757978839-4.431915253044317E-5i       -0.001842175040402474-7.08691520285554E-6i        -0.001419912835281406+5.5608867431731235E-5i      -0.001211310342535924+8.520744721918341E-5i
44                                                -2.2408316437691914E-4+8.994432907764485E-5i      -3.9597490632686154E-4+5.454664753856526E-5i      -5.00033787719334E-4+3.704880552313726E-7i        -5.748804557018027E-4-4.300322561259257E-5i       -6.513401118261344E-4-7.145278511980179E-5i       -7.121676479335114E-4-8.645615463356347E-5i       -7.544827728518024E-4-9.122987668645643E-5i       -7.524000306115584E-4-8.544404058205564E-5i       -7.216947614138967E-4-7.10186864960944E-5i        -6.713508622526806E-4-4.397890132436506E-5i       -6.433747619931694E-4+2.2693915104555196E-6i      -6.449248836916359E-4+5.720021387254287E-5i       -6.511636104977504E-4+9.397084004010445E-5i       -1.5410255230175742E-4+9.762259658223489E-5i      -1.5847260432919424E-4+6.229249547474667E-5i      -1.9080031868091486E-4-1.7162380800958843E-5i     -2.1505448268446255E-4-6.199957340136201E-5i      -2.3166780380305565E-4-8.311875554392054E-5i      -2.4522113176475785E-4-9.668305272577127E-5i      -2.5030700374859986E-4-1.0358106421542745E-4i     -2.421933525094045E-4-9.622525839468508E-5i       -2.2611916407964228E-4-8.415657444274505E-5i      -2.1657863685014934E-4-6.058195445740175E-5i      -2.5807673281227726E-4-1.538553115864426E-5i      -3.888396893637792E-4+6.123965385479305E-5i       -4.6051579341908574E-4+1.022593359545321E-4i      -1.2855260466572926E-4+8.838697392220127E-5i      -1.2554433845622467E-4+5.0193382968050405E-5i     -1.325034819345638E-4-5.3822518723906135E-6i      -1.4628488924737362E-4-5.053608047984911E-5i      -1.6552907857225602E-4-8.106424404742705E-5i      -1.8807098677764563E-4-9.547321924083766E-5i      -2.1914357335890236E-4-9.872287941002185E-5i      -2.4209191171932785E-4-9.313353183349161E-5i      -2.4517042953875186E-4-7.81474898227872E-5i       -2.529859239213813E-4-4.9323387831988857E-5i      -2.9247566240633377E-4-2.5397187441903417E-6i     -3.709386824326577E-4+5.2914107206800974E-5i      -4.2921465085753294E-4+9.084495094003559E-5i      -1.3118394740360012E-4+9.624326804034953E-5i      -1.4987573195703594E-4+5.745819237216627E-5i      -6.399487984397477E-5-1.6805404862159225E-5i      2.484210041177856E-5-5.91187112386559E-5i         2.426796408027934E-4-8.454802427681108E-5i        9.605271540922593E-4-1.0409382963979647E-4i       NaN                                               -0.0019378762706142242-7.760315996089815E-5i      -0.001145465713712295-7.119621466660757E-5i       -8.338434812753405E-4-5.2884018141482766E-5i      -6.809837105129525E-4-8.204565123278E-6i          -6.346908085943804E-4+6.559419861956026E-5i       -6.110217921152708E-4+1.0059337651514238E-4i
46                                                -3.61360840544495E-4+1.1351222259906029E-4i       -5.208648641064011E-4+7.083699321904607E-5i       -6.111892046945756E-4+6.280819432473008E-6i       -6.794216471295274E-4-4.484002407737407E-5i       -7.516229077144454E-4-7.793561583304234E-5i       -8.015046466108919E-4-9.519940758345991E-5i       -8.248762250134559E-4-1.0083473329524145E-4i      -8.02144073149069E-4-9.452410692309198E-5i        -7.547842287318007E-4-7.827993908860365E-5i       -6.95167800495837E-4-4.7069070894918096E-5i       -6.60868761973298E-4+7.1414175585572345E-6i       -6.579572299653929E-4+7.212164788713582E-5i       -6.618217549109091E-4+1.1585364751821033E-4i      -2.526442312866496E-4+1.2195189881311485E-4i      -2.4276118867359717E-4+7.970466711960962E-5i      -2.469445051140722E-4-1.4857301914837977E-5i      -2.6086975647188627E-4-6.765036946995385E-5i      -2.792670764743501E-4-9.177909338324058E-5i       -2.935170718548466E-4-1.0715338260988642E-4i      -2.9719300387827163E-4-1.1496961467793624E-4i     -2.850210816604005E-4-1.0669080826531305E-4i      -2.6457939927752183E-4-9.310483630480451E-5i      -2.5000061994408983E-4-6.607393928776729E-5i      -2.823392095533578E-4-1.3283811841146734E-5i      -3.9782042148562956E-4+7.712133535082165E-5i      -4.634536678533584E-4+1.2575708051173267E-4i      -2.2607358697798852E-4+1.1122464369193407E-4i     -2.1376640740447262E-4+6.567955930034014E-5i      -2.1035367128250697E-4-2.857569392000544E-7i      -2.202623626487628E-4-5.331121376054272E-5i       -2.367995434757071E-4-8.87127777296901E-5i        -2.5240753563736775E-4-1.0517302362987347E-4i     -2.6499925093795377E-4-1.0903024340321683E-4i     -2.6789294025644257E-4-1.0292873254299134E-4i     -2.576535632927386E-4-8.602874768565759E-5i       -2.5769559887274225E-4-5.2825840021378665E-5i     -2.938771362009274E-4+1.9050891373025158E-6i      -3.700462369663456E-4+6.73986337784792E-5i        -4.281137261275355E-4+1.124246164883306E-4i       -2.821004332318404E-4+1.2095469807507407E-4i      -3.152788305774843E-4+7.485056577763888E-5i       -2.665565655291039E-4-1.2631829162384045E-5i      -2.5110481978009926E-4-6.131977731178829E-5i      -1.884373354944368E-4-8.85666214397491E-5i        1.0494973994283716E-4-1.0530236002908135E-4i      NaN                                               -0.0011908706758050544-9.593128264254591E-5i      -8.174361381683114E-4-8.328455540375005E-5i       -6.526300951926118E-4-6.032068964709661E-5i       -5.764598619547297E-4-6.880305684931874E-6i       -5.793853567837911E-4+8.115685333910052E-5i       -5.804095169857291E-4+1.2310418797120684E-4i
48                                                -4.895720282452602E-4+1.4425983965652607E-4i      -6.378903209000615E-4+9.250604755941929E-5i       -7.16775354852613E-4+1.5129549873186369E-5i       -7.799279995081847E-4-4.542306080980111E-5i       -8.505449389136451E-4-8.40189953495532E-5i        -8.962178934431962E-4-1.0379477075741293E-4i      -9.105690052241373E-4-1.1028594737021727E-4i      -8.758740392290176E-4-1.0329177544383098E-4i      -8.169873261060394E-4-8.491042002366315E-5i       -7.489626550529912E-4-4.8732314621989106E-5i      -7.093306684927103E-4+1.520220125091858E-5i       -7.046143939557885E-4+9.265148117297273E-5i       -7.084300388997841E-4+1.451028628821926E-4i       -3.3977980358521634E-4+1.5361080167184004E-4i     -3.1943522566943715E-4+1.0278118286291145E-4i     -3.073284494670564E-4-1.0346757951498215E-5i      -3.1631190918418595E-4-7.278479351466259E-5i      -3.3727317209064145E-4-1.0038423793572519E-4i     -3.530326566279642E-4-1.1779599296449712E-4i      -3.562271559599608E-4-1.2663164049012428E-4i      -3.4003960948962396E-4-1.1731057801253042E-4i     -3.145549830886015E-4-1.020317434029256E-4i       -2.9450323565969244E-4-7.095294360587388E-5i      -3.21746411847613E-4-8.876257969384641E-6i        -4.3377247724891136E-4+9.872552482695811E-5i      -4.993666843016883E-4+1.5693498964806989E-4i      -3.105131860493598E-4+1.411333105169428E-4i       -2.9028273033544067E-4+8.644279288454137E-5i      -2.792672236867385E-4+7.647185733225556E-6i       -2.872890858516106E-4-5.495003628080901E-5i       -3.0403697318979686E-4-9.612251077164247E-5i      -3.1804797081601114E-4-1.1485942452890683E-4i     -3.2258770744926333E-4-1.19268574041141E-4i       -3.152527913028429E-4-1.1247388891845586E-4i      -2.9639309008671017E-4-9.332667910245658E-5i      -2.903299406797158E-4-5.490565343961446E-5i       -3.242927651587974E-4+9.513802438086805E-6i       -4.016043340102163E-4+8.747072325268558E-5i       -4.619672540554689E-4+1.4137976879350029E-4i      -4.015980816988647E-4+1.5277372019083325E-4i      -4.352122552764263E-4+9.735645875865915E-5i       -3.9622330588987427E-4-6.8257645219419696E-6i     -4.102741612834821E-4-6.381400663394922E-5i       -4.1361309557210217E-4-9.420729802958058E-5i      -2.9795408169598663E-4-1.1040985368599458E-4i     NaN                                               -9.234421754303636E-4-1.104099651306368E-4i       -7.206605534743586E-4-9.337918705130691E-5i       -6.129080041850711E-4-6.600920506736978E-5i       -5.667572748185505E-4-2.4659424033552356E-6i      -5.922015398032255E-4+1.028618302909961E-4i       -6.049834793135498E-4+1.533102296677212E-4i
50                                                -5.956016022343478E-4+1.836662143695894E-4i       -7.380451804585221E-4+1.2230106667973E-4i         -8.111059464231706E-4+3.2110837363615014E-5i      -8.728929240101675E-4-3.736774194021208E-5i       -9.446895238428364E-4-8.077579848358604E-5i       -9.892068394539051E-4-1.0254307404802818E-4i      -9.981762108359142E-4-1.0983977814987197E-4i      -9.545290851965891E-4-1.0273764250128011E-4i      -8.857837049001298E-4-8.320281552521712E-5i       -8.087454998218755E-4-4.3163808317893664E-5i      -7.613531338781476E-4+2.9577408500300635E-5i      -7.515155504282216E-4+1.1907635705937806E-4i      -7.528982464027648E-4+1.8015973214863975E-4i      -3.936242729615135E-4+1.9465328327748871E-4i      -3.701827435720554E-4+1.3442120336074395E-4i      -3.5236470967879314E-4+2.72481361100559E-6i       -3.62131825892934E-4-6.900450059810854E-5i        -3.881204315184277E-4-9.949895268750362E-5i       -4.0739351252992397E-4-1.1858097994082622E-4i     -4.117977542861394E-4-1.2837944195184857E-4i      -3.9274642039078866E-4-1.1873663249045913E-4i     -3.6294074804862653E-4-1.0274556063787817E-4i     -3.373845885902997E-4-6.879159415069235E-5i       -3.5870042484271894E-4+1.579520989004328E-6i      -4.6535666775521066E-4+1.2588393047051872E-4i     -5.295761663888825E-4+1.9356731411310725E-4i      -3.3410064549430063E-4+1.855546470590015E-4i      -3.194133208008198E-4+1.1974709327265348E-4i      -3.1382825750488226E-4+2.6784900706350934E-5i     -3.2856127571448965E-4-4.570547367612225E-5i      -3.5140790152507435E-4-9.247633730352794E-5i      -3.6826982616915626E-4-1.1330461089393357E-4i     -3.6967097423771205E-4-1.1845552772930033E-4i     -3.563799412233705E-4-1.1160737709006333E-4i      -3.3116418578510285E-4-9.127025313514186E-5i      -3.194749072179133E-4-4.8908713518072093E-5i      -3.5010734888494643E-4+2.3998923928678725E-5i     -4.2658598387907223E-4+1.1370659815804465E-4i     -4.871261215753248E-4+1.7623209215718197E-4i      -4.8790323254175157E-4+1.9305866630143397E-4i     -5.238281481902845E-4+1.2760040304901475E-4i      -4.936816348593281E-4+6.615422099462967E-6i       -5.290908675257549E-4-5.850208334796205E-5i       -5.764735143176056E-4-9.191620823185908E-5i       -5.737478716192963E-4-1.0861481211522393E-4i      NaN                                               -7.794779989335958E-4-1.1286205423851809E-4i      -6.813452497803451E-4-9.390251340898447E-5i       -6.06651235059348E-4-6.377365625608895E-5i        -5.761384043191916E-4+8.577535782590108E-6i       -6.125538121740427E-4+1.3043393645489313E-4i      -6.313378964849069E-4+1.89133220564896E-4i
50.5                                              -6.642699843645611E-4+1.9557833763268395E-4i      -7.985234569767068E-4+1.2967244897093638E-4i      -8.63947344146353E-4+3.25422009508851E-5i         -9.219782075368852E-4-4.2245027307669824E-5i      -9.9252388819947E-4-8.883315632786428E-5i         -0.0010359891502001585-1.1201668843260432E-4i     -0.001042553480009169-1.1960140224751997E-4i      -9.94963596704545E-4-1.1169548132027923E-4i       -9.217813163022462E-4-9.041157922216948E-5i       -8.414780233248168E-4-4.705294583813554E-5i       -7.936215389731616E-4+3.1543161877871926E-5i      -7.86356301603535E-4+1.2820524478726316E-4i       -7.902297603008803E-4+1.9423608748592102E-4i      -4.5581267052578213E-4+2.0603738084625073E-4i     -4.235025148230261E-4+1.418658186523848E-4i       -3.956332600914013E-4+1.306140976506821E-7i       -4.013029971000197E-4-7.685732802598864E-5i       -4.270130255873679E-4-1.0926421554039811E-4i      -4.458246856462498E-4-1.29392308620409E-4i        -4.4910035764668757E-4-1.3957180068052406E-4i     -4.271613436506065E-4-1.2887095116785924E-4i      -3.939470054343452E-4-1.1138271807511975E-4i      -3.65325622166996E-4-7.457211835786845E-5i        -3.860906688166287E-4+1.4808503211825417E-6i      -4.968541329821714E-4+1.356464011902833E-4i       -5.641631448420863E-4+2.0877575559869875E-4i      -4.1858121183246315E-4+1.906535806881528E-4i      -3.897079095734941E-4+1.2184881976115093E-4i      -3.7126653694593566E-4+2.3357167417456634E-5i     -3.7913041490244333E-4-5.362398894364854E-5i      -3.9872277576709467E-4-1.0315889248391787E-4i     -4.1376274657055963E-4-1.2493574795340408E-4i     -4.1232054463137275E-4-1.299858756394754E-4i      -3.9532242080795265E-4-1.222170172059845E-4i      -3.662353622077356E-4-9.999533784609783E-5i       -3.515808277751222E-4-5.4039576905981586E-5i      -3.8163282751431935E-4+2.492884536994801E-5i      -4.6060545257914495E-4+1.2202590786085556E-4i     -5.241703856105179E-4+1.8967739048627384E-4i      -5.523615417025746E-4+2.053244601242774E-4i       -5.808869318709449E-4+1.353154385884095E-4i       -5.442475361463568E-4+5.2197234071261995E-6i      -5.797192239065373E-4-6.449846644579467E-5i       -6.334507909327944E-4-9.974044172509405E-5i       -6.487311125193824E-4-1.1613447857642675E-4i      NaN                                               -7.825732894728215E-4-1.2526488289102799E-4i      -6.991606401989506E-4-1.0333071200118104E-4i      -6.276093286783857E-4-7.01656716555468E-5i        -6.000882747459937E-4+8.355897572078813E-6i       -6.428890498154058E-4+1.4021179920325913E-4i      -6.651741955187759E-4+2.0381243281924802E-4i
51                                                -7.058305229260028E-4+2.0925069402674869E-4i      -8.367530789021723E-4+1.3972027428799187E-4i      -8.991655027107596E-4+3.757647476867299E-5i       -9.561675503403306E-4-4.0780921095901835E-5i      -0.0010268724834595884-8.933825121283597E-5i      -0.00107009698099033-1.1332917395935136E-4i       -0.0010751602984497076-1.2116998346182157E-4i     -0.0010247531374403657-1.1306027639734512E-4i     -9.482392699346942E-4-9.109526397090387E-5i       -8.649240741931005E-4-4.598322889747264E-5i       -8.150852104928214E-4+3.6283172511671714E-5i      -8.07326073528509E-4+1.3781411883392522E-4i       -8.112888603347354E-4+2.0731487804523288E-4i      -4.8487567559592416E-4+2.2002167133395117E-4i     -4.495999720351313E-4+1.5242532821341866E-4i      -4.182617957836865E-4+3.4238125371568013E-6i      -4.232745425117561E-4-7.721958536030575E-5i       -4.5013385030666673E-4-1.1078372832630791E-4i     -4.696806104378154E-4-1.3155177894805345E-4i      -4.7297005878488426E-4-1.4204542044398953E-4i     -4.495688020290583E-4-1.3102992016992486E-4i      -4.143760069914458E-4-1.1303702248814596E-4i      -3.835613851639128E-4-7.48385099687021E-5i        -4.02792130406899E-4+4.704175030115524E-6i        -5.135615867613265E-4+1.456047001993473E-4i       -5.814733418031961E-4+2.2254707734039735E-4i      -4.476628153626355E-4+2.041082334203965E-4i       -4.160515333408324E-4+1.3164612347462E-4i         -3.9533787965661957E-4+2.810416589283715E-5i      -4.0289820538747217E-4-5.2507744768125444E-5i     -4.231004024551075E-4-1.0411483923760874E-4i      -4.3850880429187816E-4-1.266182270916838E-4i      -4.3598425129123103E-4-1.318137550364596E-4i      -4.1698942171860555E-4-1.238155715988524E-4i      -3.855465801662026E-4-1.0086480694348077E-4i      -3.6877440977334177E-4-5.3058421385515585E-5i     -3.9776712407637893E-4+2.9549521475264294E-5i     -4.771484287910375E-4+1.3151697972350686E-4i      -5.416036195005236E-4+2.0270199412727362E-4i      -5.877875841998093E-4+2.19276344608607E-4i        -6.144056349301877E-4+1.4551602081586525E-4i      -5.772624384215739E-4+8.838787540705168E-6i       -6.160590148529474E-4-6.409305458231791E-5i       -6.781176399959134E-4-1.0054702965165007E-4i      -7.143792509379615E-4-1.1706987635775144E-4i      NaN                                               -7.695763611939275E-4-1.280420023494835E-4i       -7.042149505011115E-4-1.0505124666729181E-4i      -6.37480970213946E-4-7.05314354343022E-5i         -6.123863572323999E-4+1.171535442464359E-5i       -6.581819618866344E-4+1.50281149426884E-4i        -6.821827762407985E-4+2.1723236675370746E-4i