% Model:              biconAndDipole_fullFeature_addCablesV2_1.1.22.mph
% Version:            COMSOL 5.6.0.401
% Date:               Jan 5 2022, 16:52
% Table:              Table 11 - s21
% freq (MHz)                                      abs(emw.S12) (1)                                  S12 (1)
30                                                1.4872251072466412E-4                             -8.038921808055328E-5-1.2512377397059713E-4i
35                                                2.1568504555701527E-4                             -1.3612703961748244E-4-1.6730053186380528E-4i
40                                                3.139602309676177E-4                              -2.262280997571936E-4-2.1769674666721395E-4i
42                                                3.8063406192859076E-4                             -2.87585617314432E-4-2.4935276580406187E-4i
44                                                4.3850606065277026E-4                             -3.4653039242562753E-4-2.687084895468538E-4i
46                                                5.162830791385969E-4                              -4.2546519690673005E-4-2.924509942297139E-4i
48                                                6.121417160157944E-4                              -5.24598776878239E-4-3.154577686230236E-4i
50                                                7.006581768686097E-4                              -6.250442798926689E-4-3.1660942655944237E-4i
50.5                                              7.598804246514312E-4                              -6.807514076765857E-4-3.3763261204271483E-4i
51                                                7.97114897103915E-4                               -7.201619383639662E-4-3.4170007567578927E-4i
51.5                                              8.357755018887153E-4                              -7.613102366695702E-4-3.4485854070829826E-4i
52                                                8.768071090349597E-4                              -8.050837973791209E-4-3.47319428843044E-4i
52.5                                              9.209211211661887E-4                              -8.521863372532332E-4-3.491047951674524E-4i
53                                                9.694496005185645E-4                              -9.039134850891073E-4-3.5038969650899896E-4i
53.5                                              0.0010272067484199694                             -9.649990811734596E-4-3.5203760784027765E-4i
54                                                0.0011639683447153767                             -0.001107000658937945-3.596829834874171E-4i
54.5                                              0.0010631161482744062                             -0.00101237242931408-3.2452736261603157E-4i
55                                                0.001144277171039154                              -0.001096256362269724-3.280125490656123E-4i
55.5                                              0.0012110807940916403                             -0.001167369973029676-3.224345451193649E-4i
56                                                0.0012783596569605528                             -0.0012393930115309193-3.132225654588454E-4i
56.5                                              0.001348717797656134                              -0.0013147515847997213-3.007789354011243E-4i
57                                                0.0014232301810942548                             -0.0013944277548784642-2.848778418940151E-4i
57.5                                              0.0015026140381291134                             -0.0014790468079838043-2.6508392515503374E-4i
58                                                0.0015875027179920894                             -0.0015691298611658704-2.4082433105865233E-4i
58.5                                              0.0016785470360455746                             -0.0016651818311928207-2.1139919886959757E-4i
59                                                0.0017764915098625346                             -0.0017677545773735542-1.7597113055417543E-4i
59.5                                              0.0018823385033531793                             -0.001877598751886961-1.334959479475453E-4i
60                                                0.0019979848740517923                             -0.0019962673948344047-8.282539019416277E-5i
60.5                                              0.002134626132489737                              -0.002134513077301496-2.1969258908515344E-5i
61                                                0.0022172118918433927                             -0.002216706984897187+4.7315076241927556E-5i
61.5                                              0.0023756703054533227                             -0.002372000854204238+1.3198995365954697E-4i
62                                                0.0025321416634957283                             -0.0025215189305147203+2.3169740410029487E-4i
62.5                                              0.0026994462329192922                             -0.0026767604684958296+3.4923252815301155E-4i
63                                                0.0028799963010544332                             -0.002838392819591081+4.877549546452705E-4i
63.5                                              0.0030753311474036576                             -0.0030056752299488193+6.508287626274743E-4i
64                                                0.003286766649628084                              -0.0031769516526461246+8.425041280946216E-4i
64.5                                              0.00351547606886701                               -0.003349539121396104+0.0010673142297438298i
65                                                0.003762426883075558                              -0.003519440027798134+0.0013301871827761417i
65.5                                              0.004028243771309344                              -0.0036809590707905385+0.0016362420970801904i
66                                                0.0043130015494894595                             -0.0038262604098935438+0.001990405396289854i
66.5                                              0.004615942035167166                              -0.003944923927373037+0.0023967678400844093i
67                                                0.00493511471307127                               -0.0040236148348182935+0.0028576005480477292i
67.5                                              0.005266960684354103                              -0.004046062678077+0.00337198037592217i
68                                                0.005605895938627499                              -0.003993637141598365+0.0039340731635248375i
68.5                                              0.005944003136192719                              -0.003846859597009142+0.0045313181883385265i
69                                                0.006270998701209617                              -0.0035881083510940375+0.005143044154134974i
69.5                                              0.006574671962975859                              -0.0032054491567224883+0.005740331621466474i
70                                                0.00684194126882941                               -0.002696908917784414+0.006287991938233215i
70.5                                              0.007060490049199614                              -0.002073804742530366+0.006749063166448016i
71                                                0.007220665787292991                              -0.0013614575008252206+0.007091152789584374i
71.5                                              0.00731709379713221                               -5.962761973599584E-4+0.007292757800207862i
72                                                0.007349452083450052                              1.802790876776854E-4+0.007347240664186414i
72.5                                              0.007322132633875227                              9.28838936479216E-4+0.007262980417028586i
73                                                0.007242743138621009                              0.0016178145398825648+0.00705974534148267i
73.5                                              0.007120932710726487                              0.0022265460831385735+0.0067638875811440536i
74                                                0.006965055506551013                              0.0027444591436269444+0.006401557796216407i
74.5                                              0.006779492276447416                              0.0031679128939520666+0.00599381709954036i
75                                                0.006552757336831426                              0.0034906188208159786+0.005545647749646865i
75.5                                              0.006117854556038201                              0.0036147251260549573+0.004935778219481134i
76                                                0.006741209855763488                              0.004307871233794197+0.005185186183011295i
76.5                                              0.006288695161602692                              0.004313065354888552+0.004576587602136027i
77                                                0.006067655069058839                              0.004404313280090583+0.00417354316712948i
77.5                                              0.005890416112812629                              0.004483905930300129+0.003819893923959405i
78                                                0.0056300061744158315                             0.004436955177516616+0.0034656021521041447i
78.5                                              0.005550025324643119                              0.004541383924544158+0.003190393886978825i
79                                                0.005414344332179314                              0.004561434455722229+0.0029169230798141254i
79.5                                              0.005285989163307022                              0.0045658623983322825+0.002663565654173865i
80                                                0.005166237941884841                              0.004559597326760583+0.00242900940508024i
80.5                                              0.005054838512579213                              0.004545373395521598+0.0022115544495984025i
81                                                0.004951298226536939                              0.004525155368098184+0.0020095579172245887i
81.5                                              0.004855070818911245                              0.004500432569995218+0.0018214882210900352i
82                                                0.004765601558260965                              0.004472341352550673+0.0016459407760805226i
82.5                                              0.004682338239127861                              0.004441738028973513+0.0014816391826519351i
83                                                0.004604729047360523                              0.004409246979814154+0.001327430100082678i
83.5                                              0.004532211018596967                              0.004375290016741479+0.0011822749200139987i
84                                                0.00446418700355899                               0.00434009669968025+0.001045239800318371i
84.5                                              0.004399983792814065                              0.004303689678385721+9.154848601602614E-4i
85                                                0.004338774242908256                              0.004265829049266887+7.922527711247688E-4i
85.5                                              0.004279422756783882                              0.004225876016477218+6.748562992537E-4i
86                                                0.004220148815412565                              0.004182471320753504+5.626630210903455E-4i
86.5                                              0.004157700539784853                              0.004132722047143902+4.550629182629343E-4i
87                                                0.004084896596501957                              0.004069749619606096+3.514516152037389E-4i
87.5                                              0.003981203786643005                              0.00397328229384153+2.510207246941798E-4i
88                                                0.003751884529617518                              0.0037488058691565436+1.5196078099533953E-4i
88.5                                              2.9486035371899656E-4                             -2.726293385782215E-4+1.1232039860013523E-4i
89                                                0.004665960204685845                              0.004665948377515288-1.0505716273646481E-5i
89.5                                              0.004386363720794627                              0.0043850708078374085-1.0649272912017188E-4i
90                                                0.004348650038635317                              0.004344113406121188-1.9858467534306697E-4i
90.5                                              0.0032459996291822504                             0.0032364154341061437-2.49256355046064E-4i
91                                                0.004024149121503695                              0.0040089600151223-3.493075281890925E-4i
91.5                                              0.004043217232516816                              0.004020020103617631-4.3248578685435335E-4i
92                                                0.004039658843221564                              0.0040069982093560745-5.12648924543298E-4i
92.5                                              0.004033717450686949                              0.003990134075253529-5.913599018170576E-4i
93                                                0.004029528204461515                              0.003973561477441294-6.692583473856676E-4i
93.5                                              0.004028824154132368                              0.003958980481332042-7.469254402899264E-4i
94                                                0.00403342095865608                               0.003948101927327769-8.252125793738778E-4i
94.5                                              0.00404721573585135                               0.0039445154176169055-9.059543767239714E-4i
95                                                0.00408340389082857                               0.003960252717835973-9.952817422753675E-4i
95.5                                              0.004237526085641241                              0.004080763873213862-0.0011419253642697394i
96                                                0.0035225867067069246                             0.0033831452181810042-9.812978849296182E-4i
96.5                                              0.0038616707128728677                             0.003692843432937339-0.0011293396630206562i
97                                                0.003910007105674443                              0.003715547432307484-0.0012177285595311852i
97.5                                              0.003913711820840791                              0.003693213927415334-0.001295110459742465i
98                                                0.003900142401646491                              0.0037473306574951934-0.0010810289989253298i
98.5                                              0.003651865861661754                              0.00341252598042587-0.001300304081547466i
99                                                0.004832265783729359                              0.004518106477957631-0.0017139155342194674i
99.5                                              0.004407235221683512                              0.004057352797785053-0.0017209330531875778i
100                                               0.004393512239871478                              0.004008790732270552-0.0017979284376087455i
100.5                                             0.004455107534257593                              0.004029582416954468-0.0019001180717971595i
101                                               0.00458387854991143                               0.004108851376319971-0.002032063711513888i
101.5                                             0.004841299141625415                              0.004298795702067426-0.0022267763449860894i
102                                               0.005534905705192869                              0.004864624887023934-0.0026401904995518688i
102.5                                             0.014632307347045282                              0.012583410443100417-0.007467409183837906i
103                                               0.0020513794143853523                             0.0017670138214730153-0.0010420267062255751i
103.5                                             0.003185264790659254                              0.002716585092211759-0.0016631527961634698i
104                                               0.003537867924593297                              0.0029829210344821887-0.0019022858759686438i
104.5                                             0.0037222919508778218                             0.0031009436923875363-0.002059030253350293i
105                                               0.0038460595420056797                             0.0031639293596018043-0.002186715575492765i
105.5                                             0.003951672426133908                              0.003207346492344497-0.0023083854620735466i
106                                               0.0039026978086327178                             0.0031333480681035547-0.0023266241788519127i
106.5                                             0.004043893863613865                              0.0031952444839533907-0.002478606517368037i
107                                               0.004110292292280235                              0.0031986961243109877-0.002581248890032919i
107.5                                             0.004166978841933158                              0.003191800979985163-0.0026788279476824104i
108                                               0.0042153458474489935                             0.0031755159376665168-0.0027722263874423053i
108.5                                             0.00423892828263886                               0.0031380665315656193-0.002849745853374184i
109                                               0.0035493581449540937                             0.003109425042417043-0.001711554599404219i
109.5                                             0.004540016344923907                              0.003244392037953598-0.003175794186694019i
110                                               0.004577630361360694                              0.0032002835570118754-0.0032730543655690564i
110.5                                             0.004666546774494846                              0.003190357412280565-0.0034056245213550337i
111                                               0.00481803610007475                               0.003216259507477066-0.003587359285350004i
111.5                                             0.005191427042445574                              0.0033745140575871073-0.003945069025021261i
112                                               0.013408943511201742                              0.007863767070987846-0.01086098216276256i
112.5                                             0.0028797112759543202                             0.0018086643555887047-0.002240863735634399i
113                                               0.004298283760764688                              0.0025783687112334603-0.0034390780853283537i
113.5                                             0.0038971139538095346                             0.0022515193366944076-0.003180905192782105i
114                                               0.004452921421706323                              0.0024903070460993507-0.0036914604161549644i
114.5                                             0.0020875936085638057                             0.0011328428039949158-0.0017534863147322791i
115                                               0.0061685995598967005                             0.0031933804004509866-0.0052776834073647565i
115.5                                             0.005642561160818978                              0.0027667799922274005-0.004917664580692034i
116                                               0.005566222015348378                              0.002576178269477595-0.0049341800785966845i
116.5                                             0.0055807044560727635                             0.0024187749148099204-0.005029293204568278i
117                                               0.0056294512902845695                             0.0022602627449927167-0.0051557670770977036i
117.5                                             0.005694685729514001                              0.002087069361633015-0.005298451381079491i
118                                               0.005768256416151884                              0.0018899767645312883-0.005449841274019751i
118.5                                             0.005844730915185473                              0.0016599274041755351-0.005604062855089322i
119                                               0.00591890088522391                               0.0013867096016150194-0.005754165810079955i
119.5                                             0.005983563870349827                              0.0010564369941101018-0.005889565134034211i
120                                               0.006027056054710624                              6.505035634299307E-4-0.005991848612956519i
120.5                                             0.006026713556800925                              1.4079821931503624E-4-0.006025068643357167i
121                                               0.005925910013575499                              -5.2529105625864E-4-0.005902582383602032i
121.5                                             0.005441767309730838                              -0.001530087215873333-0.005222227931168478i
122                                               0.006960486274675234                              0.0013210970760515943-0.006833964566457032i
122.5                                             0.005804192715735514                              -0.0018900289339296664-0.0054878450880382805i
123                                               0.004820559942693205                              -0.0026698381085224613-0.004013696878861123i
123.5                                             0.0033973294945182633                             -0.00257959599507394-0.002210776378678361i
124                                               0.0015092779683015926                             -0.0013827886837821006-6.048267864477806E-4i
124.5                                             5.457526715863224E-4                              5.42836157176792E-4+5.6346117924320745E-5i
125                                               0.00239956543342393                               0.002375292972987354-3.404373095885221E-4i
125.5                                             0.0038940168118735924                             0.0036580245246897714-0.0013349994411693022i
126                                               0.005062315440146945                              0.004402077468594825-0.0024997503027382423i
126.5                                             0.0059982332804519355                             0.004770905673018646-0.003635555190872461i
127                                               0.0067886710328583875                             0.004907302467239986-0.004690888709763951i
127.5                                             0.007501630189421715                              0.004903874013193496-0.00567683672141174i
128                                               0.008194628561810467                              0.004816699878245641-0.00662958064653778i
128.5                                             0.008934729529872029                              0.004684975101648213-0.007607916933622735i
129                                               0.009848838057861697                              0.004553257526649033-0.008733124125191333i
129.5                                             0.01138954121444016                               0.004557443542220469-0.010437976692582906i
130                                               0.01930662673581429                               0.006324999112611433-0.01824116833268976i
130.5                                             0.004905627766012341                              0.0013728917367140832-0.004709602112486088i
131                                               0.008325107802026261                              0.0017957903958927238-0.008129117834634825i
131.5                                             0.00905140469645184                               0.0013035494359837922-0.008957046714564838i
132                                               0.012593503692780665                              0.003037763732739546-0.012221633555467638i
132.5                                             0.011794500164784253                              4.719492591924238E-4-0.011785054010646006i
133                                               0.012333497478229115                              -5.140253693677416E-4-0.01232278125932333i
133.5                                             0.012940997280547232                              -0.0015769299934746863-0.012844559253271822i
134                                               0.013546722271580313                              -0.00276989417704026-0.01326051924139204i
134.5                                             0.014124397374078092                              -0.004097822610897437-0.013516895021804446i
135                                               0.014648543758084918                              -0.005544153653762884-0.013558841930489354i
135.5                                             0.015087082638678301                              -0.007069042286771363-0.013328492176317113i
136                                               0.015397640132881807                              -0.008604302786751807-0.012769232365950099i
136.5                                             0.015514047156822966                              -0.010042890610283678-0.011824804749931504i
137                                               0.015072004863727161                              -0.011076436795464628-0.010221442096313635i
137.5                                             0.015420185869640482                              -0.012397211558294485-0.009170129651926935i
138                                               0.01453112846040492                               -0.01270251081867167-0.007056905358180666i
138.5                                             0.012297937879609554                              -0.011299809727736233-0.0048532026753158675i
139                                               0.00714059944405897                               -0.006919362295511195-0.0017636853018476182i
139.5                                             0.05600693688140565                               -0.03610331853035888-0.04281737229131655i
140                                               0.016724743525947373                              -0.01588250812091827-0.005240513505152313i
140.5                                             0.0160230292065093                                -0.015907970218280037-0.0019167546757385325i
141                                               0.013945660365915104                              -0.01394564318938769-2.1887798887334604E-5i
141.5                                             0.010744786856003937                              -0.010687988712488628+0.00110333216334459i
142                                               0.04649977098928397                               -0.04637234386308103-0.0034401201577890874i
142.5                                             0.015395325391941767                              -0.015028236320993347+0.003341879262352741i
143                                               0.012862411789679703                              -0.012301553147703767+0.003756784156896814i
143.5                                             0.011175734843881574                              -0.010448804546764404+0.003964786607658003i
144                                               0.009450283522202035                              -0.008616420985196669+0.0038813848116188874i
144.5                                             0.006919659215835202                              -0.006138043879797573+0.003194698889249596i
145                                               3.1018482974978626E-4                             2.040065208002482E-4-2.3365780123480107E-4i
145.5                                             0.05008063875027681                               -0.04430386130604261+0.023350337278306446i
146                                               0.018340830183524635                              -0.014954016186220933+0.010619013688809832i
146.5                                             0.013083969141881221                              -0.011315221844954763+0.0065693228802638825i
147                                               0.014234030363389475                              -0.011107650981914135+0.008900994891015018i
147.5                                             0.027050254467604694                              -0.0197782188166847+0.018453680586850606i
148                                               0.004630898706326497                              -0.0033728954140052835+0.0031731371471208983i
148.5                                             0.0065022872024916535                             -0.0045191731974236465+0.0046751270009887935i
149                                               0.006641007803831107                              -0.004382799633340179+0.004989393953631929i