% Model:              biconAndDipole_fullFeature_addCablesV2_1.1.22.mph
% Version:            COMSOL 5.6.0.401
% Date:               Jan 5 2022, 16:51
% Table:              Table 10 - tickle Impedance
% freq (MHz)                                      abs(emw.Zport_2) (Ω)                              Lumped port impedance (Ω)
30                                                4685.219329611288                                 0.04444880969118907-4685.219329400445i
35                                                4011.2625833406387                                0.07780975101292692-4011.262582585969i
40                                                3505.1193117533217                                0.07083877103013084-3505.1193110374925i
42                                                3336.3482553421472                                0.0719040039461754-3336.34825456732i
44                                                3182.6616998120717                                0.06930862717436813-3182.6616990574066i
46                                                3042.2879267833014                                0.07088835912137433-3042.2879259574165i
48                                                2913.52671929534                                  0.07328806806180539-2913.526718373581i
50                                                2794.9848490148456                                0.07673610822582234-2794.9848479614534i
50.5                                              2766.796346375612                                 0.07776498297203542-2766.7963452827607i
51                                                2739.1651222814894                                0.07818080620911273-2739.1651211657772i
51.5                                              2712.0558343138973                                0.07979775377698545-2712.055833139939i
52                                                2685.4648528446187                                0.08150814341120988-2685.4648516076677i
52.5                                              2659.369612940194                                 0.08456034855332444-2659.3696115958055i
53                                                2633.762471223684                                 0.0871298993110087-2633.762469782472i
53.5                                              2608.620599897317                                 0.09095290760114634-2608.620598311722i
54                                                2583.8503504701075                                0.11872639327507806-2583.8503477424038i
54.5                                              2559.811804931488                                 0.09290319906474881-2559.811803245621i
55                                                2535.9925754279116                                0.09577746228129316-2535.992573619286i
55.5                                              2512.6215664659057                                0.09947588048735463-2512.621564496757i
56                                                2489.664945092858                                 0.1033373906701126-2489.664942948269i
56.5                                              2467.111155781743                                 0.1076453444228635-2467.1111534333445i
57                                                2444.9478886531883                                0.11255059583828958-2444.9478860626145i
57.5                                              2423.164643077123                                 0.11807550200538124-2423.1646402003425i
58                                                2401.7514186966123                                0.12427149862302363-2401.7514154815826i
58.5                                              2380.6985458092668                                0.1312235194628632-2380.6985421927625i
59                                                2359.9966041164926                                0.1390391227745855-2359.9966000207496i
59.5                                              2339.6322469748156                                0.1489644225270966-2339.632242232532i
60                                                2319.601631350205                                 0.15940051864879087-2319.6016258732893i
60.5                                              2299.8748897802448                                0.17322986512215133-2299.874883256284i
61                                                2280.577337843188                                 0.17972726714260878-2280.5773307612335i
61.5                                              2261.4767235111894                                0.1953703727140027-2261.476715072106i
62                                                2242.698244239114                                 0.21300737030702713-2242.6982341235894i
62.5                                              2224.219569344718                                 0.23180266478190137-2224.2195572657674i
63                                                2206.030328000277                                 0.2532573305139074-2206.0303134630167i
63.5                                              2188.1225810074734                                0.27777912450254055-2188.122563375636i
64                                                2170.4899394325594                                0.30578202899850304-2170.489917893033i
64.5                                              2153.126303808485                                 0.3377474907210456-2153.126277318314i
65                                                2136.0259441902285                                0.3741829747959063-2136.0259114160717i
65.5                                              2119.183545340428                                 0.4155846376236559-2119.1835045911043i
66                                                2102.594230976027                                 0.46238351596706395-2102.5941801344247i
66.5                                              2086.2535931562716                                0.5148612183862711-2086.253529625625i
67                                                2070.157699758094                                 0.5730271204780822-2070.1576204501052i
67.5                                              2054.303061538364                                 0.6364556960410298-2054.302962946323i
68                                                2038.6865162920658                                0.7040970820656851-2038.686394705762i
68.5                                              2023.3049965347495                                0.7740993245019714-2023.3048484528274i
69                                                2008.1551684808167                                0.8437081240925879-2008.1549912426626i
69.5                                              1993.2329768628465                                0.9093235937302604-1993.232769443681i
70                                                1978.533196037072                                 0.9667918470788982-1978.5329598301353i
70.5                                              1964.0491075842228                                1.0119743433113415-1964.0488468748201i
71                                                1949.7724828639164                                1.041508674761405-1949.7722046928973i
71.5                                              1935.6939698114882                                1.0535102593261796-1935.6936831225885i
72                                                1921.803783362438                                 1.0479338809560705-1921.803497650257i
72.5                                              1908.0923773158975                                1.0264547322201751-1908.092101226174i
73                                                1894.5497844899965                                0.9927394280961227-1894.549524393469i
73.5                                              1881.1685102151143                                0.9485527390594857-1881.1682710679165i
74                                                1867.9360546755936                                0.8977698131682766-1867.9358389319439i
74.5                                              1854.8301402930695                                0.8424120181324671-1854.8299489930605i
75                                                1841.7789857698751                                0.7815109602263389-1841.7788199629533i
75.5                                              1828.175606711041                                 0.6961330831345969-1828.175474174187i
76                                                1818.4190757375309                                0.8261747771236638-1818.4188880567024i
76.5                                              1805.0432878183824                                0.6977397562157671-1805.043152962673i
77                                                1792.6024455837041                                0.6431731227908727-1792.6023302007088i
77.5                                              1780.416074640625                                 0.601586019012977-1780.4159730054641i
78                                                1768.433737761207                                 0.5466645995413327-1768.4336532677412i
78.5                                              1756.5793051623152                                0.5259374449562357-1756.579226426843i
79                                                1744.886679753013                                 0.4974458142557724-1744.886608845158i
79.5                                              1733.3395374473578                                0.47081219555751214-1733.3394735060115i
80                                                1721.932384522901                                 0.4466716138827201-1721.9323265892865i
80.5                                              1710.6607989030508                                0.42478413894621814-1710.660746162739i
81                                                1699.5211535235896                                0.40491895234896036-1699.5211052866612i
81.5                                              1688.5099202188035                                0.3868580187581947-1688.5098759018804i
82                                                1677.6235272118238                                0.37040341874315885-1677.6234863210364i
82.5                                              1666.8582236272377                                0.3553777886679774-1666.8581857435795i
83                                                1656.2099259889876                                0.3416215972627265-1656.2098907563413i
83.5                                              1645.674004120729                                 0.32898933385043777-1645.6739712363355i
84                                                1635.244943246659                                 0.31734532092829-1635.2449124537022i
84.5                                              1624.9157705956538                                0.30655879247612516-1624.9157416777568i
85                                                1614.6770164954123                                0.29649678680616093-1614.676989273143i
85.5                                              1604.5146816224692                                0.28701222568439566-1604.514655952396i
86                                                1594.4058677899445                                0.2779209143100618-1594.4058435677446i
86.5                                              1584.306969644868                                 0.2690272824713087-1584.3069468034364i
87                                                1574.127322575398                                 0.2596703050059376-1574.1273011576045i
87.5                                              1563.6044969987367                                0.2488793850895509-1563.6044771916345i
88                                                1551.5568187097035                                0.23455253918214394-1551.5568009807705i
88.5                                              1494.2947132493964                                1.384577532478012-1494.2940717911426i
89                                                1544.3800730630553                                0.330974913644269-1544.3800375975645i
89.5                                              1531.282399314378                                 0.28355453790882934-1531.282373060835i
90                                                1519.6418286680807                                0.28527675310875-1519.6418018911045i
90.5                                              1533.5090423803388                                0.9960650624069567-1533.5087188916323i
91                                                1505.9547939780568                                0.24553329470351898-1505.9547739619848i
91.5                                              1495.9060434829973                                0.23758953930658508-1495.9060246152383i
92                                                1486.670022569052                                 0.23347897119180808-1486.6700042353164i
92.5                                              1477.7360585092724                                0.23024458052680868-1477.7360405721831i
93                                                1468.9836018323988                                0.22755704777429844-1468.9835842072155i
93.5                                              1460.3655891157553                                0.22537168311359118-1460.3655717254537i
94                                                1451.858146393395                                 0.22375621643484328-1451.8581291510616i
94.5                                              1443.4457848274906                                0.22304321918709358-1443.4457675950187i
95                                                1435.1123330818                                   0.22486343174012385-1435.1123154652128i
95.5                                              1426.8195429564662                                0.2410625508416809-1426.8195225925897i
96                                                1418.9015047219737                                0.19592288740460104-1418.9014911953907i
96.5                                              1410.6748490899727                                0.20231742659012245-1410.674834581902i
97                                                1402.603887185596                                 0.20376394914445173-1402.6038723846434i
97.5                                              1394.5825967918956                                0.2028144190892533-1394.5825820442253i
98                                                1386.5625213975231                                0.21221853865421866-1386.5625051571058i
98.5                                              1378.4217955653264                                0.20206316099695282-1378.4217807550842i
99                                                1371.2830613776798                                0.3262561481405903-1371.2830225661905i
99.5                                              1362.949864342164                                 0.23946260502321473-1362.9498433060492i
100                                               1354.7717168625668                                0.2338770768634444-1354.771696675222i
100.5                                             1346.3674891908793                                0.23701581577801817-1346.367468328634i
101                                               1337.401020373268                                 0.24720440056458942-1337.4009975267113i
101.5                                             1326.9825985014138                                0.27204527402568857-1326.982570615354i
102                                               1311.2348019732938                                0.35823067822626786-1311.2347530388006i
102.5                                             1199.6986888402632                                3.36028179172622-1199.6939828603488i
103                                               1342.5924551499081                                0.17252294109594088-1342.5924440653214i
103.5                                             1320.8746831777216                                0.1577468526435141-1320.8746737581794i
104                                               1309.6558952737323                                0.16709939062482018-1309.6558846136015i
104.5                                             1300.7354421297077                                0.17407018805232713-1300.7354304822852i
105                                               1292.7143083899948                                0.17917529092477266-1292.7142959727944i
105.5                                             1285.1505039030285                                0.1839821852736017-1285.1504907335807i
106                                               1277.896388395328                                 0.17938380829447967-1277.8963758048899i
106.5                                             1270.777269088958                                 0.18670413020765583-1270.77725537356i
107                                               1263.805010852096                                 0.18959152813851785-1263.804996631173i
107.5                                             1256.929162431003                                 0.19196815364356162-1256.9291477715565i
108                                               1250.1209047505154                                0.1940066664726966-1250.1208896965368i
108.5                                             1243.3478736981288                                0.19564015145749514-1243.34785830619i
109                                               1236.1759969940745                                0.5944627631476593-1236.175854058927i
109.5                                             1229.9550020042695                                0.2129497530717456-1229.9549835696123i
110                                               1223.142511810381                                 0.2130383043818257-1223.1424932576288i
110.5                                             1216.2132657321524                                0.21797650418171707-1216.2132461986716i
111                                               1208.9838202525896                                0.22821906512908902-1208.9837987122094i
111.5                                             1200.864024864551                                 0.25874872102587226-1200.8639969884134i
112                                               1172.6739752240962                                2.376971535022762-1172.6715662001045i
112.5                                             1186.1871114315168                                0.33159395793582147-1186.1870650836202i
113                                               1174.5439645159604                                0.23371285814444998-1174.543941263659i
113.5                                             1112.5300566261333                                0.8889338328969144-1112.5297014880941i
114                                               1211.779250273445                                 0.35924517501815134-1211.7791970223689i
114.5                                             1181.101385831679                                 0.17758216241252547-1181.1013724816714i
115                                               1178.6103175367336                                0.3382290595008782-1178.6102690054688i
115.5                                             1169.2584560235077                                0.2796709349959301-1169.2584225767396i
116                                               1161.893067733872                                 0.26818688912420496-1161.893036782569i
116.5                                             1155.2340039207688                                0.2655864500551355-1155.2339733918184i
117                                               1148.9506938323675                                0.2662757853758097-1148.9506629769116i
117.5                                             1142.9040163863874                                0.2685560978372616-1142.9039848341408i
118                                               1137.0229351927374                                0.271660223472671-1137.0229027398836i
118.5                                             1131.266361922244                                 0.2751728370997427-1131.2663284552843i
119                                               1125.609950182845                                 0.27844990059208-1125.609915741808i
119.5                                             1120.0359517290728                                0.281121545550088-1120.0359164492568i
120                                               1114.5330462865181                                0.2822241155389413-1114.533010553862i
120.5                                             1109.0928389273465                                0.28007265158916783-1109.0928035648012i
121                                               1103.7092156240296                                0.27063266584601486-1103.709182444076i
121.5                                             1098.378021524421                                 0.23545063105257555-1098.3779962885735i
122                                               1092.9702951125923                                0.3480390753434173-1092.970239698826i
122.5                                             1087.7978643982976                                0.25640834333197215-1087.7978341788785i
123                                               1082.5621972485733                                0.19317702526459604-1082.562180012906i
123.5                                             1077.3158231941325                                0.1238978589100822-1077.3158160696296i
124                                               1072.0456035013844                                0.07000934403181873-1072.0456012154236i
124.5                                             1066.7632366049172                                0.05875173512884789-1066.7632349870482i
125                                               1061.4923099443936                                0.08978314733556364-1061.4923061473744i
125.5                                             1056.2353350225526                                0.14233242782653785-1056.2353254325874i
126                                               1050.9712557367986                                0.19978345751845555-1050.971236747968i
126.5                                             1045.6654379270342                                0.25557392640775756-1045.6654066942754i
127                                               1040.2689982371287                                0.3090359185179694-1040.2689523340011i
127.5                                             1034.7046021416513                                0.36202675813183044-1034.704538807934i
128                                               1028.830280445844                                 0.41793436510693394-1028.8301955585966i
128.5                                             1022.3406018753828                                0.4829318385718016-1022.3404878120397i
129                                               1014.4180846084042                                0.5725250808204576-1014.417923045337i
129.5                                             1001.8462292743286                                0.7538096125574691-1001.8459456833963i
130                                               945.4883706379412                                 2.3451100593191305-945.4854623263113i
130.5                                             1049.7826613321677                                0.38023620958425375-1049.782592470495i
131                                               1021.1163564979157                                0.4522666296333534-1021.116256340322i
131.5                                             1014.6511562725486                                0.6340968143720739-1014.6509581360725i
132                                               1004.6316441486119                                0.9891203614087392-1004.6311572242092i
132.5                                             998.1186870924247                                 0.760778060315768-998.1183971552916i
133                                               992.4157190599032                                 0.8139163221496212-992.4153852986184i
133.5                                             987.0364632694509                                 0.8800739865886495-987.0360709180005i
134                                               981.8204949329092                                 0.9489446893455189-981.8200363479447i
134.5                                             976.6737838223925                                 1.0164188475817089-976.6732549315947i
135                                               971.518631611618                                  1.0784016052757137-971.5180330897047i
135.5                                             966.2657361900846                                 1.1296279671882457-966.2650758852986i
136                                               960.7782006252087                                 1.163634479093617-960.7774959642908i
136.5                                             954.7977179250023                                 1.1706351140219236-954.7970002928487i
137                                               947.6545885865817                                 1.1036732909581728-947.6539458971666i
137.5                                             937.8333300515806                                 1.1667985280457671-937.8326042193414i
138                                               913.5900593001721                                 1.2934691007996517-913.5891436470649i
138.5                                             1068.8914315953068                                7.501646541555574-1068.86510740927i
139                                               959.8142091029831                                 0.8850314177970595-959.8138010652767i
139.5                                             955.6035418268795                                 16.751874097058153-955.4566991058846i
140                                               943.866874208186                                  1.49082232199434-943.8656968426895i
140.5                                             935.5539012876608                                 1.2074673016655884-935.5531220819465i
141                                               928.9336369959101                                 0.9128202680894796-928.9331885026003i
141.5                                             921.9361064331472                                 0.5693289298956138-921.9359306425154i
142                                               940.9010414315443                                 10.674067816585243-940.8404934117215i
142.5                                             915.7579155091399                                 1.0712805443253965-915.7572889011806i
143                                               909.1811077777484                                 0.7551058420756074-909.1807942071483i
143.5                                             902.8675725648109                                 0.5806769800283332-902.8673858343311i
144                                               895.8787633241761                                 0.4338809950261451-895.8786582582138i
144.5                                             886.7554988103462                                 0.27756852130566856-886.7554553686726i
145                                               867.6974683511053                                 0.18850518350116857-867.6974478749567i
145.5                                             974.158552424128                                  13.79426245524772-974.0608828940767i
146                                               893.4024373272091                                 1.4828745558847873-893.40120668446i
146.5                                             875.6143497413838                                 0.7719615533667431-875.6140094518739i
147                                               851.7881665037138                                 0.9048710230370688-851.7876858725947i
147.5                                             704.5566339326135                                 3.9438956919525485-704.5455954764218i
148                                               949.2036823036137                                 0.4725332997482234-949.203564685163i
148.5                                             905.4116729311442                                 0.4335371748182571-905.411569136098i
149                                               889.9532281164853                                 0.26658043501866985-889.9531881901568i
149.5                                             880.6051985414952                                 0.23866005200899143-880.6051662008834i
150                                               873.3389530364236                                 0.22603792431067185-873.3389237848118i
150.5                                             866.2335418174746                                 0.21944457152482041-866.2335140213213i
151                                               863.8955137880306                                 1.0628999103400318-863.8948599145998i
151.5                                             857.2317902598198                                 0.3677287601293602-857.2317113870757i
152                                               851.6364264638513                                 0.2837283298818959-851.6363792008616i
152.5                                             846.0075568595387                                 0.24851998691551896-846.0075203573912i