% Model:              biconAndDipole_fullFeature.mph
% Version:            COMSOL 5.6.0.401
% Date:               Dec 26 2021, 17:31
% Table:              Table 5 - Global Evaluation 4
% freq (MHz)                                      10 * log10( (abs(emw.Vport_1))^2 /50/.001)
30                                                -73.10765648183668
35                                                -69.90953067018935
40                                                -66.5577413308988
42                                                -65.15570940466569
44                                                -63.739380201552535
46                                                -62.322364169386894
48                                                -60.906512098130186
50                                                -59.51250265651603
50.501002004008015                                -59.146182326379
51.00200400801602                                 -58.78367366222769
51.503006012024045                                -58.41913425738234
52.00400801603207                                 -58.04940254048172
52.505010020040075                                -57.66923073542103
53.0060120240481                                  -57.26497065666599
53.50701402805611                                 -56.78093664293027
54.00801603206412                                 -55.36867614864603
54.50901803607214                                 -56.87425020775226
55.01002004008016                                 -56.22325658099377
55.51102204408817                                 -55.78608444153738
56.012024048096194                                -55.39029731806699
56.51302605210421                                 -55.00888700252037
57.01402805611222                                 -54.63375019605821
57.51503006012024                                 -54.26141064365129
58.016032064128254                                -53.89043007800011
58.51703406813626                                 -53.51986519949476
59.018036072144284                                -53.149216032419524
59.5190380761523                                  -52.77818818942765
60.020040080160314                                -52.40661461492826
60.521042084168336                                -52.03441593522926
61.022044088176344                                -51.661579770084316
61.52304609218436                                 -51.288150289494794
62.02404809619239                                 -50.91422375074326
62.525050100200396                                -50.53994781456612
63.02605210420842                                 -50.16552345554686
63.52705410821643                                 -49.791208801063114
64.02805611222445                                 -49.417324509577305
64.52905811623246                                 -49.044260437818004
65.03006012024048                                 -48.67248341042817
65.53106212424849                                 -48.30254591124036
66.03206412825651                                 -47.935095489986146
66.53306613226452                                 -47.570884601353384
67.03406813627254                                 -47.210780504238656
67.53507014028055                                 -46.85577470348838
68.03607214428857                                 -46.506991266713904
68.5370741482966                                  -46.16569316210202
69.0380761523046                                  -45.83328559110237
69.53907815631263                                 -45.5113151487445
70.04008016032064                                 -45.201463592884046
70.54108216432864                                 -44.90553511347152
71.04208416833667                                 -44.62543637173182
71.54308617234469                                 -44.36314933474017
72.04408817635269                                 -44.12069814969716
72.54509018036072                                 -43.90011290746933
73.04609218436873                                 -43.70339445268773
73.54709418837673                                 -43.53248315714315
74.04809619238478                                 -43.38922565268927
74.54909819639278                                 -43.275310678872515
75.05010020040079                                 -43.19211824055908
75.5511022044088                                  -43.14045638367381
76.05210420841684                                 -43.120321092979
76.55310621242484                                 -43.13095620683376
77.05410821643287                                 -43.171259530123216
77.55511022044088                                 -43.240184146393865
78.05611222444888                                 -43.336855339952834
78.55711422845691                                 -43.46048766121697
79.05811623246493                                 -43.61029229044376
79.55911823647293                                 -43.78544990870903
80.06012024048096                                 -43.985133575373226
80.56112224448897                                 -44.20854871132627
81.06212424849697                                 -44.45496827479522
81.56312625250501                                 -44.7237521826759
82.06412825651302                                 -45.01434505319821
82.56513026052103                                 -45.32624654930189
83.06613226452905                                 -45.65894523865612
83.56713426853707                                 -46.011800359615584
84.06813627254508                                 -46.383846799093675
84.5691382765531                                  -46.7734916921129
85.07014028056112                                 -47.17808433125471
85.57114228456912                                 -47.59341912722149
86.07214428857715                                 -48.013427455049175
86.57314629258516                                 -48.43053054688695
87.07414829659317                                 -48.83686776262731
87.5751503006012                                  -49.22520755355846
88.07615230460922                                 -49.58829054056855
88.57715430861721                                 -49.91633930522673
89.07815631262525                                 -50.195661212925906
89.57915831663325                                 -50.40973831328046
90.08016032064127                                 -50.5422249511963
90.58116232464928                                 -50.580492007691575
91.08216432865731                                 -50.518521271063676
91.58316633266531                                 -50.35822342160898
92.08416833667334                                 -50.10876818014471
92.58517034068136                                 -49.784274817364974
93.08617234468936                                 -49.40075436653537
93.58717434869739                                 -48.97323217543586
94.0881763527054                                  -48.51236342693512
94.58917835671342                                 -48.019258728628486
95.09018036072143                                 -47.46167251353447
95.59118236472946                                 -46.462200752696205
96.09218436873745                                 -47.51741825299335
96.59318637274549                                 -46.64027912819399
97.0941883767535                                  -46.0951843527641
97.59519038076151                                 -45.481667131882595
98.09619238476954                                 -45.78058333629964
98.59719438877755                                 -45.194509253067295
99.09819639278555                                 -44.78194417249833
99.59919839679358                                 -44.424563191741264
100.1002004008016                                 -44.09349119718917
100.6012024048096                                 -43.77927688228397
101.10220440881763                                -43.476519774491784
101.60320641282564                                -43.1807108790949
102.10420841683366                                -42.88716657611352
102.60521042084167                                -42.59064930157198
103.1062124248497                                 -42.28605556368494
103.60721442885769                                -41.97296143200145
104.10821643286572                                -41.67302294092731
104.60921843687373                                -41.4704083834328
105.11022044088175                                -41.494416608863645
105.61122244488976                                -41.677612978516606
106.11222444889779                                -41.78246487092707
106.61322645290579                                -41.75127800950208
107.1142284569138                                 -41.640389304119395
107.61523046092184                                -41.4953909915678
108.11623246492984                                -41.33803744533939
108.61723446893785                                -41.17709752048792
109.11823647294588                                -41.01526433019778
109.61923847695391                                -40.85200103449269
110.1202404809619                                 -40.68446106877347
110.62124248496994                                -40.50819289031291
111.12224448897793                                -40.31979582052732
111.62324649298596                                -40.12242996507574
112.12424849699397                                -39.92756616372009
112.625250501002                                  -39.74572669180968
113.12625250501                                   -39.57807800494628
113.62725450901803                                -39.419533814488986
114.12825651302605                                -39.264618347045854
114.62925851703405                                -39.109606983495645
115.13026052104208                                -38.95233831091355
115.63126252505009                                -38.791622224065335
116.13226452905809                                -38.62683495746317
116.63326653306612                                -38.457716482983614
117.13426853707413                                -38.284286399193974
117.63527054108214                                -38.10681217537741
118.13627254509018                                -37.925789025035044
118.6372745490982                                 -37.74190817929944
119.1382765531062                                 -37.55600314686715
119.63927855711422                                -37.368974710206324
120.14028056112224                                -37.18170486528042
120.64128256513024                                -36.9949755752631
121.14228456913827                                -36.80940814594556
121.64328657314628                                -36.62543337756642
122.14428857715428                                -36.443293958755206
122.64529058116231                                -36.26307252094027
123.14629258517033                                -36.08473411638434
123.64729458917833                                -35.90817140190599
124.14829659318636                                -35.73324344606025
124.64929859719437                                -35.55980305914393
125.15030060120239                                -35.38771131412437
125.65130260521042                                -35.21684057510984
126.15230460921843                                -35.04706859190979
126.65330661322643                                -34.8782660814867
127.15430861723446                                -34.710278838878345
127.65531062124248                                -34.542903440772
128.1563126252505                                 -34.37581961389863
128.6573146292585                                 -34.208671420290045
129.1583166332665                                 -34.04121045385224
129.65931863727454                                -33.87404503302832
130.16032064128257                                -33.70915481798686
130.66132264529057                                -33.551694762278366
131.16232464929857                                -33.43277058794147
131.6633266533066                                 -33.77975286529771
132.16432865731463                                -33.00635860184167
132.66533066132263                                -33.104906630993284
133.16633266533066                                -33.00992450448557
133.6673346693387                                 -32.84926722865916
134.1683366733467                                 -32.703503681262944
134.6693386773547                                 -32.580439035193926
135.17034068136272                                -32.48139045267715
135.67134268537075                                -32.408582830790124
136.17234468937872                                -32.365069560166944
136.67334669338672                                -32.35379341264932
137.17434869739478                                -32.37611779139663
137.6753507014028                                 -32.43059174130818
138.1763527054108                                 -32.51338822605514
138.6773547094188                                 -32.60176982991219
139.17835671342687                                -32.55525620856036
139.67935871743484                                -34.28865996229011
140.18036072144287                                -35.396202032432384
140.6813627254509                                 -35.96906745824662
141.18236472945893                                -36.92122020661734
141.68336673346693                                -38.2089259888756
142.1843687374749                                 -39.87377200594483
142.68537074148293                                -42.0098793076253
143.18637274549098                                -44.73688210633192
143.68737474949899                                -47.91423188423869
144.188376753507                                  -49.622302958615506
144.68937875751502                                -47.58511752071769
145.19038076152304                                -44.522261945575316
145.69138276553102                                -41.95367716864184
146.19238476953907                                -39.96176316824201
146.6933867735471                                 -38.41527905778266
147.1943887775551                                 -37.20865132756712
147.6953907815631                                 -36.303097921020004
148.19639278557113                                -35.78703490038535
148.69739478957914                                -35.53124616590382
149.19839679358716                                -35.295193667728945
149.69939879759517                                -31.26039372780275
150.2004008016032                                 -29.703522180886978
150.70140280561122                                -28.872886677150838
151.20240480961922                                -31.710427784864365
151.7034068136272                                 -31.11831924174952
152.20440881763525                                -30.617730928953616
152.70541082164328                                -30.259826983937987
153.20641282565128                                -29.986534225442703
153.7074148296593                                 -29.771448509235245
154.20841683366734                                -29.6011761785836
154.70941883767532                                -29.467733008014353
155.21042084168334                                -29.365068094749716
155.71142284569137                                -29.28748333027659
156.2124248496994                                 -29.230283566035034
156.7134268537074                                 -29.192199813232023
157.2144288577154                                 -29.172214322127363
157.7154308617234                                 -29.16840484393676
158.21643286573143                                -29.178859565450203
158.71743486973946                                -29.202071700073134
159.21843687374746                                -29.236977241352044
159.7194388777555                                 -29.282916447057655
160.22044088176352                                -29.339578317212176
160.7214428857715                                 -29.406929582337792
161.22244488977952                                -29.48511612253293
161.72344689378758                                -29.57431025587198
162.22444889779558                                -29.674459483892974
162.72545090180358                                -29.78489558833948
163.2264529058116                                 -29.9038342214182
163.7274549098196                                 -30.027962302475796
164.2284569138276                                 -30.152489332106498
164.72945891783564                                -30.271983525627274
165.23046092184367                                -30.381838484418484
165.7314629258517                                 -30.479624639651924
166.2324649298597                                 -30.56555138579337
166.73346693386767                                -30.64193534845092
167.2344689378757                                 -30.712214530058834
167.73547094188376                                -30.780079218282328
168.23647294589176                                -30.848918533637566
168.7374749498998                                 -30.921502028792567
169.23847695390782                                -30.999773380737636
169.7394789579158                                 -31.084650911067104
170.2404809619238                                 -31.17527779826728
170.74148296593185                                -31.268728100094734
171.24248496993988                                -31.36417980149622
171.74348697394788                                -31.459946273777035
172.24448897795588                                -31.55044683875916
172.74549098196388                                -31.62601474247165
173.2464929859719                                 -31.66850252128862
173.74749498997994                                -31.63794235034727
174.24849699398794                                -31.435305841242208
174.749498997996                                  -30.904292070363184
175.250501002004                                  -30.346646179351566
175.75150300601197                                -31.324835473569674
176.25250501002                                   -32.95068182560311
176.75350701402806                                -32.45285026398017
177.25450901803606                                -32.05735023210628
177.75551102204406                                -32.40253665598085
178.2565130260521                                 -33.23329360077188
178.7575150300601                                 -34.10163410441836
179.2585170340681                                 -34.876318415032166
179.75951903807615                                -35.574050196583784
180.26052104208415                                -36.23095916806871
180.76152304609218                                -36.87236297443217
181.26252505010018                                -37.50771179820298
181.76352705410818                                -38.12283987436836
182.26452905811618                                -38.65922993450722
182.76553106212424                                -38.99798040242916
183.26653306613224                                -39.045887258426816
183.76753507014027                                -38.909066256808146
184.26853707414827                                -38.87047456479782
184.76953907815627                                -38.97669609655193
185.27054108216427                                -38.76855472898656
185.77154308617233                                -38.26149050101242
186.27254509018036                                -37.60346018167387
186.77354709418836                                -36.86309641592557
187.2745490981964                                 -36.07364979967343
187.77555110220436                                -35.24681487648182
188.2765531062124                                 -34.376295056088175
188.77755511022042                                -33.449613513880514
189.27855711422845                                -32.47265230870335
189.77955911823645                                -31.501480453609737
190.28056112224448                                -30.678526642803718
190.78156312625245                                -30.278022251184304
191.28256513026048                                -30.79511659098211
191.7835671342685                                 -33.48296925682377
192.28456913827654                                -43.3824379637175
192.78557114228457                                -33.772571461717995
193.28657314629257                                -32.129755272473155
193.7875751503006                                 -32.90503845924477
194.28857715430857                                -34.40637606922479
194.78957915831663                                -35.495789028629815
195.29058116232463                                -35.21490661220883
195.79158316633266                                -32.50941641435472
196.29258517034066                                -29.853938253291542
196.7935871743487                                 -31.95612798431076
197.29458917835666                                -32.59064689564685
197.7955911823647                                 -32.514289303214795
198.29659318637272                                -32.52560457760072
198.79759519038075                                -32.21723270469951
199.29859719438875                                -31.8474595372307
199.79959919839678                                -31.29017409383449
200.30060120240478                                -30.559633792699014
200.80160320641278                                -29.78529747763082
201.30260521042084                                -28.95856584248005
201.80360721442884                                -28.06555663681503
202.30460921843687                                -27.059302767124187
202.80561122244487                                -25.812600084007144
203.30661322645287                                -24.256248779370328
203.80761523046087                                -27.899692125337808
204.30861723446893                                -33.82861422282593
204.80961923847693                                -31.675629850392866
205.31062124248496                                -30.615422356513392
205.81162324649296                                -26.08250705657766
206.31262525050096                                -25.443648241648216
206.813627254509                                  -25.59394827880474
207.31462925851702                                -25.613415310495856
207.81563126252505                                -25.587250396286862
208.31663326653305                                -25.560744622942757
208.81763527054107                                -25.55555073750698
209.31863727454905                                -25.596371907363654
209.81963927855708                                -25.74645316379997
210.3206412825651                                 -25.911616297121633
210.82164328657313                                -26.12346982190217
211.32264529058114                                -26.484234071553495
211.82364729458916                                -27.208247859137693
212.32464929859714                                -26.88592465177685
212.82565130260517                                -27.75129857917658
213.3266533066132                                 -28.829535367893495
213.82765531062122                                -30.205690482736006
214.32865731462925                                -32.1200231032112
214.82965931863725                                -34.673756500191246
215.33066132264526                                -36.685196225422125
215.83166332665326                                -34.60343102514709
216.3326653306613                                 -30.503742278353087
216.83366733466931                                -28.401768135074338
217.33466933867734                                -26.167684993026437
217.83567134268534                                -24.12226900940525
218.33667334669335                                -22.70553476921191
218.83767535070135                                -21.575314155130304
219.3386773547094                                 -20.702142865031195
219.8396793587174                                 -20.244308894829388
220.34068136272543                                -20.101561943742063
220.84168336673343                                -20.22430360120518
221.34268537074144                                -20.571273332720335
221.84368737474946                                -21.365737079510954
222.3446893787575                                 -22.594446807886527
222.84569138276552                                -23.24233928859716
223.34669338677352                                -23.08644674718161
223.84769539078155                                -22.757067507123885
224.34869739478953                                -22.510223393616712
224.84969939879755                                -22.36793802787127
225.35070140280558                                -22.308222360588694
225.8517034068136                                 -22.310187093932413
226.3527054108216                                 -22.35887398238156
226.85370741482964                                -22.44277586186761
227.35470941883761                                -22.55101801673043
227.85571142284564                                -22.669036430570987
228.3567134268537                                 -22.730652135331326
228.8577154308617                                 -22.403691277600252
229.35871743486973                                -22.115543220357413
229.85971943887773                                -21.81483192700744
230.36072144288573                                -21.32975272018831
230.86172344689373                                -20.709568759012058
231.3627254509018                                 -20.063066819133716
231.8637274549098                                 -19.50092015092841
232.36472945891782                                -19.09023178530578
232.86573146292582                                -18.842707636458265
233.36673346693382                                -18.732989182363
233.86773547094182                                -18.72355342087275
234.36873747494988                                -18.780353047592317
234.86973947895788                                -18.87796819330687
235.3707414829659                                 -18.999242399873502
235.87174348697394                                -19.13356314067334
236.3727454909819                                 -19.275042893454152
236.87374749498994                                -19.420352986149346
237.37474949899794                                -19.566403509802235
237.875751503006                                  -19.707625833680776
238.376753507014                                  -19.830579803909735
238.87775551102203                                -19.907019624874884
239.37875751503                                   -20.1491111380139
239.87975951903803                                -21.046629087947473
240.38076152304603                                -21.29261449039113
240.8817635270541                                 -21.508513592649194
241.3827655310621                                 -21.761628520696824
241.88376753507012                                -22.038138509399722
242.38476953907812                                -22.325408200845057
242.88577154308612                                -22.611459500770493
243.38677354709415                                -22.880992396296254
243.88777555110218                                -23.115959651367234
244.3887775551102                                 -23.297996847958885
244.8897795591182                                 -23.403737652729163
245.3907815631262                                 -23.37609297949799
245.8917835671342                                 -22.97674611247315
246.39278557114224                                -22.23206179390376
246.89378757515027                                -23.130057443591564
247.3947895791583                                 -23.120748728436496
247.8957915831663                                 -22.176612847531164
248.3967935871743                                 -20.027646573459556
248.8977955911823                                 -24.651516313213623
249.39879759519033                                -25.66975556382435
249.8997995991984                                 -26.23515646916762
250.4008016032064                                 -26.375279897907905
250.90180360721442                                -26.167938886880165
251.4028056112224                                 -26.00090570697699
251.90380761523042                                -25.985707734980625
252.40480961923842                                -26.09498484589663
252.90581162324648                                -26.380151327876877
253.40681362725448                                -26.861308862828203
253.9078156312625                                 -27.5052863563227
254.40881763527048                                -26.986696407426436
254.9098196392785                                 -25.83635498214508
255.4108216432865                                 -26.696649824506828
255.91182364729457                                -27.566011997521848
256.41282565130257                                -27.219643874940587
256.91382765531057                                -26.865435935722985
257.4148296593186                                 -26.826307574838548
257.9158316633266                                 -27.29612823599146
258.4168336673347                                 -28.097026806272996
258.9178356713427                                 -28.694638066765222
259.4188376753507                                 -29.292915360497304
259.9198396793587                                 -29.622755522294376
260.4208416833667                                 -30.150964762151332