% Model:              biconAndDipole_box_12.31.21.mph
% Version:            COMSOL 5.6.0.401
% Date:               Jan 1 2022, 14:40
% Table:              Table 6 - Point Evaluation 1
% freq (MHz)             abs(emw.Ex) (V/m), Point: (-0.6, 0, 0.4)abs(emw.Ex) (V/m), Point: (-0.5, 0, 0.4)abs(emw.Ex) (V/m), Point: (-0.4, 0, 0.4)abs(emw.Ex) (V/m), Point: (-0.3, 0, 0.4)abs(emw.Ex) (V/m), Point: (-0.2, 0, 0.4)abs(emw.Ex) (V/m), Point: (-0.1, 0, 0.4)abs(emw.Ex) (V/m), Point: (-1.1102E-16, 0, 0.4)abs(emw.Ex) (V/m), Point: (0.1, 0, 0.4)abs(emw.Ex) (V/m), Point: (0.2, 0, 0.4)abs(emw.Ex) (V/m), Point: (0.3, 0, 0.4)abs(emw.Ex) (V/m), Point: (0.4, 0, 0.4)abs(emw.Ex) (V/m), Point: (0.5, 0, 0.4)abs(emw.Ex) (V/m), Point: (0.6, 0, 0.4)abs(emw.Ex) (V/m), Point: (-0.6, 0.4, 2.4493E-17)abs(emw.Ex) (V/m), Point: (-0.5, 0.4, 2.4493E-17)abs(emw.Ex) (V/m), Point: (-0.4, 0.4, 2.4493E-17)abs(emw.Ex) (V/m), Point: (-0.3, 0.4, 2.4493E-17)abs(emw.Ex) (V/m), Point: (-0.2, 0.4, 2.4493E-17)abs(emw.Ex) (V/m), Point: (-0.1, 0.4, 2.4493E-17)abs(emw.Ex) (V/m), Point: (-1.1102E-16, 0.4, 2.4493E-17)abs(emw.Ex) (V/m), Point: (0.1, 0.4, 2.4493E-17)abs(emw.Ex) (V/m), Point: (0.2, 0.4, 2.4493E-17)abs(emw.Ex) (V/m), Point: (0.3, 0.4, 2.4493E-17)abs(emw.Ex) (V/m), Point: (0.4, 0.4, 2.4493E-17)abs(emw.Ex) (V/m), Point: (0.5, 0.4, 2.4493E-17)abs(emw.Ex) (V/m), Point: (0.6, 0.4, 2.4493E-17)abs(emw.Ex) (V/m), Point: (-0.6, 4.8986E-17, -0.4)abs(emw.Ex) (V/m), Point: (-0.5, 4.8986E-17, -0.4)abs(emw.Ex) (V/m), Point: (-0.4, 4.8986E-17, -0.4)abs(emw.Ex) (V/m), Point: (-0.3, 4.8986E-17, -0.4)abs(emw.Ex) (V/m), Point: (-0.2, 4.8986E-17, -0.4)abs(emw.Ex) (V/m), Point: (-0.1, 4.8986E-17, -0.4)abs(emw.Ex) (V/m), Point: (-1.1102E-16, 4.8986E-17, -0.4)abs(emw.Ex) (V/m), Point: (0.1, 4.8986E-17, -0.4)abs(emw.Ex) (V/m), Point: (0.2, 4.8986E-17, -0.4)abs(emw.Ex) (V/m), Point: (0.3, 4.8986E-17, -0.4)abs(emw.Ex) (V/m), Point: (0.4, 4.8986E-17, -0.4)abs(emw.Ex) (V/m), Point: (0.5, 4.8986E-17, -0.4)abs(emw.Ex) (V/m), Point: (0.6, 4.8986E-17, -0.4)abs(emw.Ex) (V/m), Point: (-0.6, -0.4, -7.3479E-17)abs(emw.Ex) (V/m), Point: (-0.5, -0.4, -7.3479E-17)abs(emw.Ex) (V/m), Point: (-0.4, -0.4, -7.3479E-17)abs(emw.Ex) (V/m), Point: (-0.3, -0.4, -7.3479E-17)abs(emw.Ex) (V/m), Point: (-0.2, -0.4, -7.3479E-17)abs(emw.Ex) (V/m), Point: (-0.1, -0.4, -7.3479E-17)abs(emw.Ex) (V/m), Point: (-1.1102E-16, -0.4, -7.3479E-17)abs(emw.Ex) (V/m), Point: (0.1, -0.4, -7.3479E-17)abs(emw.Ex) (V/m), Point: (0.2, -0.4, -7.3479E-17)abs(emw.Ex) (V/m), Point: (0.3, -0.4, -7.3479E-17)abs(emw.Ex) (V/m), Point: (0.4, -0.4, -7.3479E-17)abs(emw.Ex) (V/m), Point: (0.5, -0.4, -7.3479E-17)abs(emw.Ex) (V/m), Point: (0.6, -0.4, -7.3479E-17)
30                       4.0824751539684645E-5    4.219520182623109E-5     9.910380061739106E-5     1.5165334212727155E-4    2.065192116014719E-4     2.4564038583890774E-4    2.651212369083148E-4     2.7534710287275215E-4    2.699065762293175E-4     2.562201084202245E-4     2.4276670673989274E-4    2.339960460335826E-4     2.2983453005756687E-4    2.0332748451139814E-5    2.1577167164554416E-5    2.882758589019098E-5     3.898322500056135E-5     4.781343074405573E-5     5.4902498678494735E-5    5.974315033878396E-5     6.136045580302024E-5     5.9518683898702747E-5    5.921329448759897E-5     7.196359722948649E-5     1.0929569306186983E-4    1.2482474098476465E-4    1.5193760187976146E-5    1.5362881706322607E-5    2.4517914792851885E-5    3.451606641659518E-5     4.1326712987097846E-5    4.4070328585711845E-5    4.435356841980629E-5     4.184857948549229E-5     3.916310438587371E-5     4.185124579989166E-5     5.7638036210933245E-5    8.605562330599445E-5     1.096096971433041E-4     1.5341699588886727E-5    3.4046354913120566E-5    4.098785370466894E-5     6.66648063861877E-5      9.291118503426469E-5     1.1749037349432065E-4    1.3316781676816393E-4    1.4108745582628015E-4    1.41334567624422E-4      1.360593014339166E-4     1.3700474185637535E-4    1.5289174754894334E-4    1.630203615431694E-4
35                       3.456005399379703E-5     1.0292215311890426E-4    1.5237454472861707E-4    2.0080928067207503E-4    2.5427635819372056E-4    2.9280276769216385E-4    3.1057035742072575E-4    3.1825109557944076E-4    3.095871337018789E-4     2.927312963720685E-4     2.781810150855623E-4     2.7072240146849423E-4    2.6854731273886465E-4    5.638591310931685E-5     5.352696147504513E-5     5.415389872924061E-5     6.304235373581883E-5     7.271773148321898E-5     8.036091617437184E-5     8.494851150468529E-5     8.512530549724039E-5     8.092416444495586E-5     7.848313196315541E-5     9.165825001054437E-5     1.3533218348098255E-4    1.5399629487295358E-4    4.515695813017119E-5     4.241322359066327E-5     4.7244615182609285E-5    5.589106174600317E-5     6.354788860321269E-5     6.675682008557093E-5     6.685361282799754E-5     6.284530746244843E-5     5.813542645495023E-5     5.9381137028417584E-5    7.62065264271136E-5      1.0903370501708838E-4    1.3695063872689366E-4    5.974559842452595E-5     7.665195434904672E-5     7.556151510370366E-5     9.926984855115037E-5     1.25369197676824E-4      1.5007054238628297E-4    1.650223128332294E-4     1.7114713769027538E-4    1.6880536299402677E-4    1.6088037731642248E-4    1.6157954930034538E-4    1.8182610984961625E-4    1.9510582849042784E-4
40                       1.2731768073082777E-4    1.8793881165038827E-4    2.273102512362349E-4     2.70619393516042E-4      3.227412098650167E-4     3.609558120141161E-4     3.7655608746590215E-4    3.806431406461072E-4     3.672754146589903E-4     3.455129203857751E-4     3.290845953656803E-4     3.234278732114524E-4     3.2427942582288733E-4    1.1243728759236527E-4    1.0161255068135505E-4    9.278420133463809E-5     1.0017151711826779E-4    1.1131717052701404E-4    1.1998691132682395E-4    1.243079681690038E-4     1.2234230229052546E-4    1.145442165005474E-4     1.087106596844723E-4     1.219570407246684E-4     1.7421351979315125E-4    1.97382526221737E-4      9.399333729765218E-5     8.423208419840113E-5     8.268148368238934E-5     8.95562819806261E-5      9.8710562087815E-5       1.0275682681948217E-4    1.02645558149343E-4      9.635485545091157E-5     8.850415812640015E-5     8.739072232203224E-5     1.052939389601102E-4     1.4406515535515812E-4    1.781308355025124E-4     1.2973293768122788E-4    1.3804166845338497E-4    1.2594787136887436E-4    1.4732308552743657E-4    1.736918996643726E-4     1.9896061301509597E-4    2.1309828222639232E-4    2.1666114420679076E-4    2.103613437251699E-4     1.9832695307274068E-4    1.9807993186985622E-4    2.2419104283640068E-4    2.4205881339001397E-4
42                       1.7576229991876285E-4    2.3126952059733554E-4    2.656844829299176E-4     3.0664723208017155E-4    3.5832919860524244E-4    3.9659220449766075E-4    4.1118069325758613E-4    4.134298101312909E-4     3.975959661069407E-4     3.731491480827425E-4     3.5562556115818116E-4    3.508730471204622E-4     3.5337010111166867E-4    1.4244295448831426E-4    1.2735381914279485E-4    1.1370769497011667E-4    1.2045957782570867E-4    1.324783010394292E-4     1.41769380310784E-4      1.4598057855771712E-4    1.4287004412131722E-4    1.3312278000412819E-4    1.2541238000595448E-4    1.3851675617192153E-4    1.9505203273404017E-4    2.2057138645320806E-4    1.2062503998309632E-4    1.070369450881817E-4     1.0218313797276079E-4    1.0821907364069799E-4    1.1826813314691653E-4    1.2281777566730843E-4    1.22624385973499E-4      1.1510456406392167E-4    1.0553259703295494E-4    1.0308189189495455E-4    1.2140006741314422E-4    1.6312599705921998E-4    2.0035023168501012E-4    1.6629582736381502E-4    1.6998964313432217E-4    1.5241742386839317E-4    1.727922633836152E-4     1.9948041399543264E-4    2.2518350750808734E-4    2.3898112277337993E-4    2.4122232819296724E-4    2.327875302619964E-4     2.1851432702163197E-4    2.175640359276733E-4     2.4658271990100753E-4    2.668677979425384E-4
44                       2.3205104477986115E-4    2.8150633618021816E-4    3.1032562417883765E-4    3.487742945036326E-4     4.0013550746845797E-4    4.38608547654977E-4      4.520969579632067E-4     4.5221569680578577E-4    4.334727063703072E-4     4.057805580061574E-4     3.8688574348461795E-4    3.8317541264023495E-4    3.8766335148208866E-4    1.782334981625567E-4     1.58114957831559E-4      1.3889721218452954E-4    1.4501376210846576E-4    1.5814304446192307E-4    1.6822473997279964E-4    1.723302157143515E-4     1.6784912879126433E-4    1.5575805776480678E-4    1.4576530186313804E-4    1.5858510925797212E-4    2.2002320153824957E-4    2.483169678028677E-4     1.527402788191809E-4     1.3460805931115653E-4    1.2589586522617163E-4    1.3101018482195433E-4    1.4219860990678784E-4    1.473918170734736E-4     1.4712491949168355E-4    1.381336981341441E-4     1.2647885231021643E-4    1.223756746427698E-4     1.4108124649208373E-4    1.8618639116614057E-4    2.2709923613907355E-4    2.0923914766856065E-4    2.075234595503156E-4     1.8370680693431237E-4    2.0306900827468647E-4    2.3026195757409963E-4    2.5657230076199923E-4    2.700289099348893E-4     2.7072922949307503E-4    2.5973720984464715E-4    2.427675673700147E-4     2.408499691745069E-4     2.731879617922291E-4     2.963417155351185E-4
46                       2.977547788947115E-4     3.401035019726438E-4     3.625946486485602E-4     3.9837497742456056E-4    4.495968135070854E-4     4.885060728679984E-4     5.008009388046833E-4     4.984379407941767E-4     4.7624565502131364E-4    4.446076413531239E-4     4.239908538352682E-4     4.214928334758572E-4     4.2841290797802374E-4    2.211939930109242E-4     1.9512860675616916E-4    1.6943869233721447E-4    1.7494323289144907E-4    1.894906357757845E-4     2.0058481310466185E-4    2.045921361348662E-4     1.9846195086029681E-4    1.8353352798328512E-4    1.7075150020612082E-4    1.8310229103386263E-4    2.501992714656947E-4     2.8179572521867997E-4    1.917241180091356E-4     1.6818531963978608E-4    1.5494423606118548E-4    1.5904935498603251E-4    1.7169490612245803E-4    1.7771584509499342E-4    1.7739260329155133E-4    1.666314354324613E-4     1.5244057336322042E-4    1.4628656888622708E-4    1.653338413568937E-4     2.1433104293306404E-4    2.5958422963047104E-4    2.599800444514915E-4     2.519170207715657E-4     2.209564923683184E-4     2.3932393636636365E-4    2.6727080547967293E-4    2.9441423107356626E-4    3.0753720071134645E-4    3.064295467289165E-4     2.9235973789830085E-4    2.7212785389379215E-4    2.689055576300793E-4     3.050623155001641E-4     3.3165121337132676E-4
48                       3.7493896090199004E-4    4.089422563755679E-4     4.2426037608310295E-4    4.572430152460903E-4     5.085947912107106E-4     5.482529810222776E-4     5.592577729035357E-4     5.539873547548061E-4     5.276790629725618E-4     4.91213978446267E-4      4.6842911703212154E-4    4.673606647885609E-4     4.7728572796442147E-4    2.731553371487646E-4     2.400242683789907E-4     2.067736711726634E-4     2.1172315245835183E-4    2.2809233195359476E-4    2.4049025112210222E-4    2.4441557467014686E-4    2.362874667797337E-4     2.1789975944654953E-4    2.016880519046367E-4     2.1333117749221687E-4    2.8701898883420315E-4    3.225881160737326E-4     2.3942638792761797E-4    2.0942460865047127E-4    1.9083353607457043E-4    1.9383732201796986E-4    2.0835718334733127E-4    2.1545070485512723E-4    2.1510255197743699E-4    2.0220033144824725E-4    1.8490119705041658E-4    1.7618749511622302E-4    1.9550683117331563E-4    2.4902616993124026E-4    2.9943461903077895E-4    3.20379056050332E-4      3.0483878911615256E-4    2.656667778045008E-4     2.8310103053546046E-4    3.1213756849176E-4       3.4041135292010074E-4    3.5322028037803205E-4    3.4997700419411545E-4    3.3218051202368187E-4    3.0797990879112216E-4    3.0302304819877654E-4    3.4361606515286323E-4    3.7436197181670884E-4
50                       4.6632985257993636E-4    4.904954804949115E-4     4.976596858717241E-4     5.277601408852261E-4     5.796351914913691E-4     6.204746103023294E-4     6.300921213294289E-4     6.213925049748884E-4     5.901360506867563E-4     5.477245305173522E-4     5.22202077883248E-4      5.228499180779137E-4     5.365371794075149E-4     3.3657306304334236E-4    2.949906215096905E-4     2.5284747698133285E-4    2.573492937057489E-4     2.760764120374105E-4     2.90165811125007E-4      2.9403971736617477E-4    2.8347268571594507E-4    2.608329442729333E-4     2.4037315571812725E-4    2.50998976220139E-4      3.324478207892266E-4     3.728541573632743E-4     2.9835366555128895E-4    2.6057309154973155E-4    2.3561292419358405E-4    2.374206759591192E-4     2.543694450027837E-4     2.6286588385312945E-4    2.625470172170975E-4     2.4703808967698035E-4    2.2589995662541826E-4    2.1396999325466712E-4    2.3345968973157794E-4    2.9228926755735913E-4    3.488892313822463E-4     3.929126051257795E-4     3.685102045695958E-4     3.198439837369403E-4     3.364712182833759E-4     3.6705325009131533E-4    3.9685340520548556E-4    4.093869207141453E-4     4.036015962194277E-4     3.8126007881940095E-4    3.52198883159919E-4      3.4495794227811725E-4    3.907668701774746E-4     4.26605442510664E-4
50.5                     4.917989776720179E-4     5.13234441394961E-4      5.181882491977783E-4     5.47561763250101E-4      5.996495352584416E-4     6.408689287616586E-4     6.501260058427653E-4     6.404746934234476E-4     6.078250629042464E-4     5.637173214151281E-4     5.374037693142695E-4     5.385374035649018E-4     5.533121051794342E-4     3.5458499137743866E-4    3.1063377982036984E-4    2.660238826213091E-4     2.704384608998507E-4     2.898601924878914E-4     3.0444603542544463E-4    3.083163765368297E-4     2.9705542995170185E-4    2.7320426167344684E-4    2.515278183740903E-4     2.618404357921246E-4     3.454484659634016E-4     3.8723016709707345E-4    3.152174816518418E-4     2.752484638121179E-4     2.4850677281910765E-4    2.500005937590734E-4     2.676645509069254E-4     2.765766855467961E-4     2.762779699086177E-4     2.600306239357554E-4     2.3779572200662848E-4    2.2493607810769803E-4    2.4444759147077027E-4    3.047520137751371E-4     3.630960631326099E-4     4.1331029655642336E-4    3.8643815642974136E-4    3.351669406108575E-4     3.516223450084878E-4     3.826804017093564E-4     4.129393162298502E-4     4.2541326486392715E-4    4.1891812617702256E-4    3.952867796252808E-4     3.648435073269121E-4     3.569289269732141E-4     4.041881992386042E-4     4.414786670202286E-4
51                       5.184460194654598E-4     5.370310970498091E-4     5.397001636330315E-4     5.683488069965798E-4     6.206869477630085E-4     6.623278918505722E-4     6.712176161848946E-4     6.605709647616145E-4     6.264604370469782E-4     5.80560734925877E-4      5.534075228559997E-4     5.550526108666719E-4     5.709831587876794E-4     3.735793974764255E-4     3.2714442661402646E-4    2.7995934718308207E-4    2.842998989419278E-4     3.0446359673016137E-4    3.195828245987407E-4     3.2345154925537837E-4    3.1146101277904314E-4    2.86329655257457E-4      2.6336644898544053E-4    2.733391368987238E-4     3.59205727776478E-4      4.0243735067491663E-4    3.330580195238127E-4     2.9079006247073407E-4    2.6218293503364406E-4    2.6335726990958874E-4    2.817863304700223E-4     2.9114460146668675E-4    2.9087189320415354E-4    2.7384727752772207E-4    2.504522174231589E-4     2.366068410735281E-4     2.5613046057560535E-4    3.179759503035937E-4     3.781524727695321E-4     4.347330137799496E-4     4.0527768414725486E-4    3.5129903544504784E-4    3.67598384448994E-4      3.991745279448135E-4     4.2992800956030073E-4    4.42347252764065E-4      4.3510805282613173E-4    4.1011829335891144E-4    3.7821766842892747E-4    3.6958193981979687E-4    4.183585516960277E-4     4.5718345599213674E-4
51.5                     5.463446629127187E-4     5.619522237719868E-4     5.622590527346402E-4     5.901855140984754E-4     6.428165414377149E-4     6.849230003319331E-4     6.934398013943866E-4     6.817526691096741E-4     6.461073444289749E-4     5.983139009322395E-4     5.702694538655544E-4     5.724546533066738E-4     5.89615050802172E-4      3.9362518472280046E-4    3.4458419951499734E-4    2.9470897202823814E-4    2.989900875365287E-4     3.199480362021194E-4     3.356386834669769E-4     3.3951018816580635E-4    3.2675025515618936E-4    3.002660443405456E-4     2.759407903029595E-4     2.855448582938462E-4     3.7377633614502634E-4    4.1853938290161314E-4    3.5194685746174864E-4    3.0726269900233885E-4    2.767000393290912E-4     2.775492544976097E-4     2.967976254941057E-4     3.0663512648590284E-4    3.0639559626313706E-4    2.885521924112827E-4     2.639298897599131E-4     2.490376772000409E-4     2.68562726186383E-4      3.320203647650608E-4     3.9412491433868927E-4    4.5724931440960096E-4    4.250902266839185E-4     3.6829613353293026E-4    3.8445711911642223E-4    4.1659696025779313E-4    4.478838609583872E-4     4.602539819448697E-4     4.5223506354768404E-4    4.258130693721099E-4     3.923745779920257E-4     3.829676867266381E-4     4.333332026842456E-4     4.737812458551507E-4
52                       5.755741728171141E-4     5.880697784850452E-4     5.85933676873134E-4      6.131427290241041E-4     6.661133224137904E-4     7.087331394721092E-4     7.168716689175934E-4     7.040962316374686E-4     6.668374611957968E-4     6.170415379388696E-4     5.880508828078093E-4     5.908074649178215E-4     6.0927791460509E-4       4.1479688024109257E-4    3.630198583697477E-4     3.1033274299759327E-4    3.145709474136E-4        3.3637972750261846E-4    3.5268300340961277E-4    3.5656232458653527E-4    3.429905184820111E-4     3.1507568254200523E-4    2.8930775721897436E-4    2.9851250632797566E-4    3.892227064679729E-4     4.3560495033418274E-4    3.7196182356911506E-4    3.2473650597144253E-4    2.9212245838006103E-4    2.926410975440663E-4     3.12767474158593E-4      3.231202052398549E-4     3.229219863630874E-4     3.0421560348633744E-4    2.782942536546986E-4     2.622896557042691E-4     2.818045079234402E-4     3.469502724610734E-4     4.110853509865387E-4     4.809331848924809E-4     4.459423689272916E-4     3.862188728072729E-4     4.0226153309708997E-4    4.350146241901163E-4     4.6687705324885913E-4    4.79204454161856E-4      4.7036798238562805E-4    4.424349753451191E-4     4.0737269176126646E-4    3.9714123323864546E-4    4.491723909267743E-4     4.913391724375006E-4
52.5                     6.062208313164641E-4     6.154621133427078E-4     6.107989952706368E-4     6.372977695499934E-4     6.906591987717696E-4     7.338444888916945E-4     7.415996679558979E-4     7.276851944142671E-4     6.887291740389011E-4     6.368144610530892E-4     6.068189633558959E-4     6.101811332977641E-4     6.300487033582909E-4     4.371759700139843E-4     3.8252444200510485E-4    3.268963757836717E-4     3.311103661348691E-4     3.538312876306435E-4     3.707919073559014E-4     3.746848014118713E-4     3.602557441519365E-4     3.308269325602672E-4     3.0352988445330056E-4    3.1230244976741887E-4    4.056134819576582E-4     4.53709606716403E-4      3.931882402157706E-4     3.432884148671966E-4     3.08520855106636E-4      3.0870368882048976E-4    3.297717162948814E-4     3.406788992382777E-4     3.405312148484918E-4     3.209147685168377E-4     2.93617418671413E-4      2.764300360525453E-4     2.9592203684940477E-4    3.628372799452177E-4     4.291130253370631E-4     5.058654226061101E-4     4.679068544790781E-4     4.0513353935330747E-4    4.2108051626691073E-4    4.5450075784283275E-4    4.869844254828204E-4     4.99276442358449E-4      4.895822347073321E-4     4.600540473534346E-4     4.2327616003096243E-4    4.1216304964533765E-4    4.659422741788169E-4     5.09930993302167E-4
53                       6.383782421279483E-4     6.442142648609996E-4     6.369364797330495E-4     6.627347880872827E-4     7.165433914323334E-4     7.60350971594943E-4      7.677180551537309E-4     7.526106780467665E-4     7.118680205544281E-4     6.57709987219631E-4      6.266470778061808E-4     6.306523320587922E-4     6.520116872145117E-4     4.608513571027659E-4     4.031776973972242E-4     3.444717395930632E-4     3.4868265651249883E-4    3.723822332347307E-4     3.900487764719361E-4     3.9396181307633897E-4    3.7862697680358855E-4    3.4759475847090696E-4    3.186757852844521E-4     3.2698097151018013E-4    4.2302404441572217E-4    4.729363403295135E-4     4.157194865112786E-4     3.6300268250225406E-4    3.25972684623774E-4      3.2581477376377756E-4    3.4789355369242513E-4    3.5939797979254643E-4    3.593112889422837E-4     3.3873457095460265E-4    3.0997866618307353E-4    2.915328152517382E-4     3.1098819477677945E-4    3.7976015564080703E-4    4.482950821649314E-4     5.321340368330617E-4     4.910629585613895E-4     4.2511242740124954E-4    4.409892576627337E-4     4.751353469815822E-4     5.082899445972546E-4     5.205549822218702E-4     5.099603388703628E-4     4.787469586918697E-4     4.401552716953091E-4     4.280994350557883E-4     4.837153831198629E-4     5.296375993041676E-4
53.5                     6.721480687670034E-4     6.744186328180432E-4     6.644347879384151E-4     6.895454899663724E-4     7.438632102567987E-4     7.883550814051175E-4     7.953297334586392E-4     7.789721994941628E-4     7.363474648665193E-4     6.798126442326483E-4     6.476155232174832E-4     6.523050562107939E-4     6.752592801927821E-4     4.859201582807468E-4     4.2506680787066667E-4    3.6313754420497495E-4    3.673692839682265E-4     3.921197630035404E-4     4.105450743843185E-4     4.144857407862145E-4     3.981931722719557E-4     3.654614778545231E-4     3.348208469702703E-4     3.42620952548664E-4      4.4153730208523425E-4    4.933764454605594E-4     4.396578997064791E-4     3.8397171702711643E-4    3.445629666552258E-4     3.440597377501352E-4     3.6722439572009236E-4    3.793728177567842E-4     3.7935898281123506E-4    3.5776840990730564E-4    3.274652920005038E-4     3.0767952444612405E-4    3.2708330239966947E-4    3.978056758262932E-4     4.687275001162096E-4     5.598350215172339E-4     5.154971910763483E-4     4.4623448498624143E-4    4.620699260521821E-4     4.970058609029157E-4     5.308854906468088E-4     5.431331802159539E-4     5.31592703476754E-4      4.985977734621484E-4     4.5808715940294E-4       4.450231875363354E-4     5.025713462451651E-4     5.505478282109632E-4
54                       7.076408531923942E-4     7.061757335719144E-4     6.933905124810241E-4     7.178299344709927E-4     7.727249208137628E-4     8.179688080347447E-4     8.24547190684069E-4      8.068785875987685E-4     7.622697665269425E-4     7.03214965503393E-4      6.69812281523992E-4      6.752314489830786E-4     6.998929714444054E-4     5.124885937507736E-4     4.4828720791410625E-4    3.829801141065989E-4     3.8725968835412797E-4    4.131396412176233E-4     4.3238127754320486E-4    4.3635809456791917E-4    4.1905210828615315E-4    3.845176089587189E-4     3.520480140180658E-4     3.593026441924463E-4     4.6124458258214955E-4    5.151305104408566E-4     4.651157896488602E-4     4.062970084095216E-4     3.643851567403208E-4     3.6353249140053047E-4    3.878648143641741E-4     4.007083890420149E-4     4.0078086783544857E-4    3.781192073450296E-4     3.461735608100855E-4     3.249601319180552E-4     3.442960128737331E-4     4.1706958328925023E-4    4.905161472143896E-4     5.890732216021678E-4     5.413040848884123E-4     4.685860357235924E-4     4.8441243062893207E-4    5.202080763424228E-4     5.548717379297466E-4     5.671131221866364E-4     5.545785258204034E-4     5.196987975530128E-4     4.771565976753763E-4     4.630143617259243E-4     5.225977058888915E-4     5.727593806151627E-4
54.5                     7.44976921763176E-4      7.395950344472481E-4     7.239090130289286E-4     7.47697427089479E-4      8.032447114794745E-4     8.493146704085442E-4     8.55493548802179E-4      8.364490072906727E-4     7.89746953233282E-4      7.280183803896603E-4     6.933338834826608E-4     6.995327311942068E-4     7.260243739515145E-4     5.40672979113456E-4      4.7294349373362877E-4    4.0409426102081095E-4    4.084522133742094E-4     4.3554719620065294E-4    4.556679258144633E-4     4.5969057587647326E-4    4.41311410718718E-4      4.048628243322185E-4     3.704486696452495E-4     3.7711453976803215E-4    4.822466458781595E-4     5.383095388830075E-4     4.922165802287484E-4     4.300901764829185E-4     3.855421289170549E-4     3.843364700799369E-4     4.0992562305559784E-4    4.23520411249273E-4      4.2369447804424054E-4    3.9990054841507964E-4    3.662097877151994E-4     3.4347406720222005E-4    3.627243254624112E-4     4.3765767409285693E-4    5.137779771161025E-4     6.199633044142093E-4     5.685870795782613E-4     4.922615846377992E-4     5.081152699577033E-4     5.448469988853722E-4     5.803591429966264E-4     5.926068948211885E-4     5.790268046011632E-4     5.421515402399288E-4     4.974569072769029E-4     4.8216112588342407E-4    5.438908362139236E-4     5.963798502182794E-4
55                       7.842873845949457E-4     7.74795875104175E-4      7.561053383627575E-4     7.792675112080634E-4     8.35549770354918E-4      8.825268688488941E-4     8.883037350531495E-4     8.678141034924368E-4     8.189019080893418E-4     7.543342101197078E-4     7.182863766237276E-4     7.253202447392984E-4     7.537764045128321E-4     5.706008283074758E-4     4.991504385199056E-4     4.2658426757724425E-4    4.31055158672966E-4      4.594584492027026E-4     4.80526809011797E-4      4.846062757841399E-4     4.6508970912351085E-4    4.2660702287304267E-4    3.9012362617975587E-4    3.9615435778448586E-4    5.046548343232242E-4     5.630362231162666E-4     5.210960929319865E-4     4.5547415082855866E-4    4.0814728383716447E-4    4.065857620992711E-4     4.335290951262873E-4     4.479366284131869E-4     4.4822962841581675E-4    4.232379725118505E-4     3.876915639763238E-4     3.6333138279197357E-4    3.824767355758256E-4     4.5968702967224943E-4    5.386423848853747E-4     6.526308485409218E-4     5.97459511868387E-4      5.173647159039209E-4     5.332864769309074E-4     5.710378911005626E-4     6.074690508685419E-4     6.197377329903256E-4     6.050574812200643E-4     5.660678011768356E-4     5.190909809316107E-4     5.025607316969347E-4     5.66556974387962E-4      6.215278807843278E-4
55.5                     8.257152345018163E-4     8.119084821237224E-4     7.901052456875703E-4     8.126710681142604E-4     8.69779482458388E-4      9.177525678253977E-4     9.231257871685464E-4     9.011172769989938E-4     8.498695833290492E-4     7.822847804782472E-4     7.447864086887318E-4     7.52716623363361E-4      7.832846107684734E-4     6.024120758210336E-4     5.270341214825075E-4     4.5056499681586323E-4    4.5518797256680147E-4    4.8500139194465445E-4    5.070923075027163E-4     5.112410256653823E-4     4.905179366060619E-4     4.4987153291913993E-4    4.111842354278863E-4     4.1653014970115905E-4    5.285923799911269E-4     5.894463923880236E-4     5.519039892872913E-4     4.8258449836993276E-4    4.3232579794819635E-4    4.3040638195466704E-4    4.588103397659702E-4     4.740982630473612E-4     4.745299061005189E-4     4.482704351362135E-4     4.107491463700469E-4     3.846540722193325E-4     4.036735398937347E-4     4.8328741390384674E-4    5.652527438178483E-4     6.872135651550327E-4     6.280457258695805E-4     5.44009090573249E-4      5.600446672148785E-4     5.98907416866183E-4      6.363349316033488E-4     6.486413076000697E-4     6.328027262254814E-4     5.915709003137109E-4     5.421724487412343E-4     5.243206125707051E-4     5.907133768869051E-4     6.483344628118599E-4
56                       8.694165491980871E-4     8.510750808704697E-4     8.260463228212233E-4     8.480515327794069E-4     9.060867563264504E-4     9.551533198536922E-4     9.60122303978616E-4      9.365161036747965E-4     8.827983516259992E-4     8.120046618201865E-4     7.729624376219323E-4     7.818571037338043E-4     8.146986612642229E-4     6.362604234886554E-4     5.567331776413518E-4     4.7616314387823765E-4    4.809826063177406E-4     5.123174333990483E-4     5.355129067660358E-4     5.397449181007888E-4     5.177407889979083E-4     4.747904580021035E-4     4.33753628659789E-4      4.38361545329958E-4      5.541958923651958E-4     6.176906616699009E-4     5.84805389404476E-4      5.115709150838195E-4     4.5821603020096185E-4    4.559377059206223E-4     4.859188544434821E-4     5.021616559977596E-4     5.027543560720698E-4     4.7515196213004224E-4    4.3552703121436736E-4    4.075775649628804E-4     4.26448316876208E-4      5.086028563891382E-4     5.937681464837227E-4     7.238626681314167E-4     6.604823172819027E-4     5.723195507237552E-4     5.885201963140599E-4     6.285949092913169E-4     6.671037583961602E-4     6.794671686360427E-4     6.624083887256517E-4     6.187970704305525E-4     5.668270046253465E-4     5.475596278616232E-4     6.164896118396368E-4     6.769443813951708E-4