% Model:              biconAndDipole_box_12.31.21.mph
% Version:            COMSOL 5.6.0.401
% Date:               Jan 1 2022, 14:41
% Table:              Table 12 - Ex complex
% freq (MHz)                                      (emw.Ex) (V/m), Point: (-0.6, 0, 0.4)             (emw.Ex) (V/m), Point: (-0.5, 0, 0.4)             (emw.Ex) (V/m), Point: (-0.4, 0, 0.4)             (emw.Ex) (V/m), Point: (-0.3, 0, 0.4)             (emw.Ex) (V/m), Point: (-0.2, 0, 0.4)             (emw.Ex) (V/m), Point: (-0.1, 0, 0.4)             (emw.Ex) (V/m), Point: (-1.1102E-16, 0, 0.4)      (emw.Ex) (V/m), Point: (0.1, 0, 0.4)              (emw.Ex) (V/m), Point: (0.2, 0, 0.4)              (emw.Ex) (V/m), Point: (0.3, 0, 0.4)              (emw.Ex) (V/m), Point: (0.4, 0, 0.4)              (emw.Ex) (V/m), Point: (0.5, 0, 0.4)              (emw.Ex) (V/m), Point: (0.6, 0, 0.4)              (emw.Ex) (V/m), Point: (-0.6, 0.4, 2.4493E-17)    (emw.Ex) (V/m), Point: (-0.5, 0.4, 2.4493E-17)    (emw.Ex) (V/m), Point: (-0.4, 0.4, 2.4493E-17)    (emw.Ex) (V/m), Point: (-0.3, 0.4, 2.4493E-17)    (emw.Ex) (V/m), Point: (-0.2, 0.4, 2.4493E-17)    (emw.Ex) (V/m), Point: (-0.1, 0.4, 2.4493E-17)    (emw.Ex) (V/m), Point: (-1.1102E-16, 0.4, 2.4493E-17)(emw.Ex) (V/m), Point: (0.1, 0.4, 2.4493E-17)     (emw.Ex) (V/m), Point: (0.2, 0.4, 2.4493E-17)     (emw.Ex) (V/m), Point: (0.3, 0.4, 2.4493E-17)     (emw.Ex) (V/m), Point: (0.4, 0.4, 2.4493E-17)     (emw.Ex) (V/m), Point: (0.5, 0.4, 2.4493E-17)     (emw.Ex) (V/m), Point: (0.6, 0.4, 2.4493E-17)     (emw.Ex) (V/m), Point: (-0.6, 4.8986E-17, -0.4)   (emw.Ex) (V/m), Point: (-0.5, 4.8986E-17, -0.4)   (emw.Ex) (V/m), Point: (-0.4, 4.8986E-17, -0.4)   (emw.Ex) (V/m), Point: (-0.3, 4.8986E-17, -0.4)   (emw.Ex) (V/m), Point: (-0.2, 4.8986E-17, -0.4)   (emw.Ex) (V/m), Point: (-0.1, 4.8986E-17, -0.4)   (emw.Ex) (V/m), Point: (-1.1102E-16, 4.8986E-17, -0.4)(emw.Ex) (V/m), Point: (0.1, 4.8986E-17, -0.4)    (emw.Ex) (V/m), Point: (0.2, 4.8986E-17, -0.4)    (emw.Ex) (V/m), Point: (0.3, 4.8986E-17, -0.4)    (emw.Ex) (V/m), Point: (0.4, 4.8986E-17, -0.4)    (emw.Ex) (V/m), Point: (0.5, 4.8986E-17, -0.4)    (emw.Ex) (V/m), Point: (0.6, 4.8986E-17, -0.4)    (emw.Ex) (V/m), Point: (-0.6, -0.4, -7.3479E-17)  (emw.Ex) (V/m), Point: (-0.5, -0.4, -7.3479E-17)  (emw.Ex) (V/m), Point: (-0.4, -0.4, -7.3479E-17)  (emw.Ex) (V/m), Point: (-0.3, -0.4, -7.3479E-17)  (emw.Ex) (V/m), Point: (-0.2, -0.4, -7.3479E-17)  (emw.Ex) (V/m), Point: (-0.1, -0.4, -7.3479E-17)  (emw.Ex) (V/m), Point: (-1.1102E-16, -0.4, -7.3479E-17)(emw.Ex) (V/m), Point: (0.1, -0.4, -7.3479E-17)   (emw.Ex) (V/m), Point: (0.2, -0.4, -7.3479E-17)   (emw.Ex) (V/m), Point: (0.3, -0.4, -7.3479E-17)   (emw.Ex) (V/m), Point: (0.4, -0.4, -7.3479E-17)   (emw.Ex) (V/m), Point: (0.5, -0.4, -7.3479E-17)   (emw.Ex) (V/m), Point: (0.6, -0.4, -7.3479E-17)
30                                                3.9218339784010244E-5+1.1339407518159982E-5i      -4.182971428108215E-5+5.541665843354932E-6i       -9.90319160021646E-5-3.773977974474041E-6i        -1.5119019077900294E-4-1.1843242401469738E-5i     -2.0581853258497704E-4-1.6997541147479773E-5i     -2.44808335272713E-4-2.0200943940578357E-5i       -2.643069473156302E-4-2.0763137057955826E-5i      -2.7464706058077514E-4-1.9621905482342827E-5i     -2.693871114685223E-4-1.67375047865062E-5i        -2.5600554896344926E-4-1.0483456433570938E-5i     -2.4275679813267004E-4-2.193367663473018E-6i      -2.3388267280314862E-4+7.28319447810061E-6i       -2.2940158744029157E-4+1.4100456966242809E-5i     -1.4619340964191661E-5+1.4131366860641475E-5i     -2.0364635242334765E-5+7.1313234601847995E-6i     -2.797308794543725E-5-6.966782546712028E-6i       -3.5888046094073585E-5-1.5223008211061347E-5i     -4.37535864281537E-5-1.9280763319710616E-5i       -5.0029967497606435E-5-2.2611649947108246E-5i     -5.492932571466219E-5-2.3494960926443206E-5i      -5.722726415743296E-5-2.213923606201869E-5i       -5.626589517760091E-5-1.9406771315623944E-5i      -5.733775103161537E-5-1.4785011014930275E-5i      -7.171577546869748E-5-5.967149665554351E-6i       -1.0896919736197086E-4+8.441714764329883E-6i      -1.2404276282506244E-4+1.395023127546252E-5i      -9.063992801450054E-6+1.2194030635724618E-5i      -1.4389097291458327E-5+5.382565694853006E-6i      -2.4079916213876463E-5-4.613651582232306E-6i      -3.206019909700401E-5-1.2786808621985117E-5i      -3.665981244784297E-5-1.907761404387192E-5i       -3.81245648944755E-5-2.2106818252736802E-5i       -3.771846504249798E-5-2.333573282346829E-5i       -3.573401114969096E-5-2.1780359319977443E-5i      -3.4385361169857195E-5-1.8745551001699512E-5i     -3.9807657341084844E-5-1.2918095525955946E-5i     -5.747298516267575E-5-4.358806573330051E-6i       -8.586489766936669E-5+5.726224830759147E-6i       -1.08817679431531E-4+1.3152883751611378E-5i       -7.039399861318564E-6+1.3631382757010211E-5i      -3.329005068724073E-5+7.136302131434181E-6i       -4.056247379760857E-5-5.889810755335134E-6i       -6.523657831887872E-5-1.3725350988324357E-5i      -9.10389344475826E-5-1.855803651036739E-5i        -1.1555956969815825E-4-2.121258388342803E-5i      -1.313121270930265E-4-2.2153841678231227E-5i      -1.394691534044648E-4-2.130787272757232E-5i       -1.4017467481864515E-4-1.8069879497921674E-5i     -1.3531380492626648E-4-1.4223491240257384E-5i     -1.3690044127153957E-4-5.344948155949942E-6i      -1.5269436132272335E-4+7.766497847513052E-6i      -1.6237191928093267E-4+1.4525773875837055E-5i
35                                                -2.8366976277300666E-5+1.9741124307830786E-5i     -1.0239245872373011E-4+1.042851854965032E-5i      -1.523203295063113E-4-4.06436961189277E-6i        -2.0013374871926824E-4-1.645751583954883E-5i      -2.5311289805426783E-4-2.4296649456892432E-5i     -2.9135463698010025E-4-2.9084983726749295E-5i     -3.091214630121136E-4-2.9964445826475854E-5i      -3.1698251293290605E-4-2.8387432646408612E-5i     -3.086396036222006E-4-2.4203066534551677E-5i      -2.923495097262548E-4-1.4945769919621008E-5i      -2.781704772309164E-4-2.421311867163783E-6i       -2.70453516683719E-4+1.2062917154564393E-5i       -2.675982311736373E-4+2.25576118418184E-5i        -5.1308306357733186E-5+2.3384372898849052E-5i     -5.203254928974162E-5+1.2559833564246549E-5i      -5.3387588129948004E-5-9.078005356017516E-6i      -5.924304994082556E-5-2.1554567920998997E-5i      -6.731964087515442E-5-2.7494261665041615E-5i      -7.355552675461844E-5-3.236450729170814E-5i       -7.800206856660284E-5-3.364412142102449E-5i       -7.900198945204155E-5-3.170178699408001E-5i       -7.6001067358612E-5-2.779493031950216E-5i         -7.561337998554171E-5-2.1028998309671013E-5i      -9.132697520782858E-5-7.785781552555967E-6i       -1.345907188537884E-4+1.4147023861958252E-5i      -1.5233232393985685E-4+2.257702189572816E-5i      -4.028356114347389E-5+2.0405527907163647E-5i      -4.12460744600658E-5+9.88144103794094E-6i         -4.693001165107308E-5-5.443130549874817E-6i       -5.297365304253397E-5-1.7821415948929824E-5i      -5.746512986273571E-5-2.7131033813425724E-5i      -5.8834015586072966E-5-3.154412208248963E-5i      -5.7958758652071465E-5-3.331948144354483E-5i      -5.4626461794097253E-5-3.107221173183058E-5i      -5.164819528131732E-5-2.6686920640677867E-5i      -5.656249128134485E-5-1.8077721505640413E-5i      -7.60269541348909E-5-5.228471579492409E-6i        -1.0856683810294181E-4+1.0079210985144921E-5i     -1.3526523320125098E-4+2.1419480262493273E-5i     -5.5232046211226864E-5+2.278064095730446E-5i      -7.560193523779213E-5+1.2643950878939192E-5i      -7.52024217780433E-5-7.35787492993158E-6i         -9.73855644082125E-5-1.9249796784959224E-5i       -1.2254314038938937E-4-2.6469122948012136E-5i     -1.4696200631115225E-4-3.0386450814696964E-5i     -1.6192950055054183E-4-3.179938024994047E-5i      -1.6838183383252505E-4-3.064148780281405E-5i      -1.6679591375174974E-4-2.5968706769186747E-5i     -1.595852595380399E-4-2.0372548776501123E-5i      -1.6142712048602124E-4-7.016802953933272E-6i      -1.813625234048029E-4+1.2975720684688007E-5i      -1.937048900632763E-4+2.3338806235758706E-5i
40                                                -1.2252498550776664E-4+3.460375345245902E-5i      -1.869126203988645E-4+1.9612987028754717E-5i      -2.2728995356982877E-4-3.037650951857299E-6i      -2.6971473087309533E-4-2.2109276266855643E-5i     -3.209472340827171E-4-3.3981781586437435E-5i      -3.586125113065352E-4-4.106293902279837E-5i       -3.7416198180335376E-4-4.239455602568469E-5i      -3.7851098591964744E-4-4.023225147898879E-5i      -3.6568057031385003E-4-3.4189921144551445E-5i     -3.449048565336076E-4-2.048946297584529E-5i       -3.290813267138678E-4-1.4667362524067949E-6i      -3.227545069504443E-4+2.085946819214072E-5i       -3.2214014091884555E-4+3.718703565502126E-5i      -1.0528642072332043E-4+3.9457740082273065E-5i     -9.907678942113562E-5+2.2558817654542502E-5i      -9.213755949340758E-5-1.0935179372348412E-5i      -9.561275589841514E-5-2.987530336725467E-5i       -1.044408594608142E-4-3.851777939116921E-5i       -1.1098602191481397E-4-4.559563388390985E-5i      -1.1490839193105134E-4-4.741869266571946E-5i      -1.1390192709628778E-4-4.465411440727784E-5i      -1.0765440136858765E-4-3.912681177524316E-5i      -1.0470305736312571E-4-2.9245124514133232E-5i     -1.2160644798189343E-4-9.240757087245305E-6i      -1.7248667175109273E-4+2.4468317207145394E-5i     -1.9378354153730407E-4+3.75206701290721E-5i       -8.727783753066259E-5+3.489020682543277E-5i       -8.218170486204628E-5+1.847190824939467E-5i       -8.251699672157686E-5-5.212772388325343E-6i       -8.626433557933487E-5-2.4058097373843075E-5i      -9.117638155980535E-5-3.7823835254415505E-5i      -9.275884198576022E-5-4.421269830568837E-5i       -9.138022721815218E-5-4.6752162317362787E-5i      -8.596379178745937E-5-4.352567828866537E-5i       -8.029061290442066E-5-3.7234439502902675E-5i      -8.388405126583115E-5-2.4507229366004567E-5i      -1.0517018305458127E-4-5.1035456303710505E-6i     -1.4289212013323156E-4+1.8346961365195242E-5i     -1.7448496532252724E-4+3.585514514291626E-5i      -1.2382875122862494E-4+3.869205976115346E-5i      -1.3615383247202807E-4+2.275161824075756E-5i      -1.2568014403584727E-4-8.207782738304361E-6i      -1.4495463137151728E-4-2.6310575312446653E-5i     -1.6969180338990918E-4-3.706167658510462E-5i      -1.9430738516640898E-4-4.277809721265739E-5i      -2.0832207535122818E-4-4.4864137227816685E-5i     -2.1229004047411352E-4-4.330115615656263E-5i      -2.071532774467206E-4-3.659801329226888E-5i       -1.9626888960922405E-4-2.8497425965853537E-5i     -1.9790593519306802E-4-8.300615936425895E-6i      -2.2306271595119145E-4+2.246438159734034E-5i      -2.3897265729484502E-4+3.852970549098661E-5i
42                                                -1.7028413866692908E-4+4.3539616341846786E-5i     -2.2987507885669902E-4+2.5358219139912464E-5i     -2.6567839783763234E-4-1.7981635538576152E-6i     -3.056668692879117E-4-2.4500815540657243E-5i      -3.5625350384306856E-4-3.851305717041965E-5i      -3.93824663183575E-4-4.6770838528490175E-5i       -4.0833067982895495E-4-4.832823624148314E-5i      -4.108760833008408E-4-4.5880846510889706E-5i      -3.9568939137424916E-4-3.8890330654133274E-5i     -3.724487235051534E-4-2.2852463198926295E-5i      -3.5562542878739663E-4-3.0683684837794103E-7i     -3.4988288734162177E-4+2.6341228921371467E-5i     -3.503740152179301E-4+4.5918164376819796E-5i      -1.3373907964059988E-4+4.902911237464176E-5i      -1.2406718261539443E-4+2.874594663833618E-5i      -1.131447031102169E-4-1.1301152751731534E-5i      -1.156381916088698E-4-3.373897644236233E-5i       -1.2504024036999716E-4-4.37657232832608E-5i       -1.3189914648612934E-4-5.197280394527801E-5i      -1.3560144924590914E-4-5.406085717462263E-5i      -1.3350196358597903E-4-5.08829561436348E-5i       -1.2544522798163554E-4-4.455523911576496E-5i      -1.2097690686513498E-4-3.3058328210942346E-5i     -1.3819758844248344E-4-9.397781071802774E-6i      -1.9260421162207E-4+3.080443375752839E-5i         -2.1562973253088462E-4+4.642795462379987E-5i      -1.1246538690411313E-4+4.361120291200102E-5i      -1.0433224130375179E-4+2.3910061445887854E-5i     -1.0208888783334629E-4-4.38778610585199E-6i       -1.0486236938279733E-4-2.6744184172948437E-5i     -1.1023278608094739E-4-4.2849552983536114E-5i     -1.1206991643998721E-4-5.024479922339812E-5i      -1.1049915090616917E-4-5.316650904839734E-5i      -1.0394397803218993E-4-4.944400974020072E-5i      -9.673200409066367E-5-4.21906200609078E-5i        -9.940260641739058E-5-2.7294656511347398E-5i      -1.2132224774306615E-4-4.346098306071917E-6i      -1.6141250001955925E-4+2.3581682594769133E-5i     -1.9534338114117928E-4+4.451043451337223E-5i      -1.5916737401698434E-4+4.816688953163981E-5i      -1.6749967475603578E-4+2.8988579295240237E-5i     -1.522061799799304E-4-8.021837357766652E-6i       -1.7025869227825727E-4-2.9481248089766156E-5i     -1.949900461340463E-4-4.208702266057432E-5i       -2.1985113164687905E-4-4.8714391787555816E-5i     -2.3344519711961041E-4-5.114016996267734E-5i      -2.361123846910851E-4-4.938778608446263E-5i       -2.2903003110980144E-4-4.165668128071741E-5i      -2.1611748456848822E-4-3.227605889054576E-5i      -2.1740252203650726E-4-8.381714699505066E-6i      -2.449507548589354E-4+2.8322525449127216E-5i      -2.6259563426811575E-4+4.756000885224362E-5i
44                                                -2.2542956434329863E-4+5.5038158612145774E-5i     -2.7957327972004593E-4+3.2933244240234514E-5i     -3.103254837705588E-4+2.9520256407976735E-7i      -3.4774503151149133E-4-2.677501756448669E-5i      -3.9778397947688027E-4-4.331662508295474E-5i      -4.354032420897047E-4-5.292896044494211E-5i       -4.4877065369863675E-4-5.474084195994513E-5i      -4.492185335813974E-4-5.19783178308157E-5i        -4.312445257756762E-4-4.3894716726625807E-5i      -4.0500299598381865E-4-2.510845474973414E-5i      -3.8688212791533345E-4+1.6726061548251388E-6i     -3.817016418916605E-4+3.357459499718307E-5i       -3.8343080584066897E-4+5.712872495251943E-5i      -1.673681867361836E-4+6.127862544072018E-5i       -1.5376054505738033E-4+3.6851522000223994E-5i     -1.3844690286506913E-4-1.1175448076221899E-5i     -1.3999766658368158E-4-3.781064072420655E-5i      -1.5021879441903726E-4-4.943213848274011E-5i      -1.5756193053661517E-4-5.893896151520578E-5i      -1.6105067249890767E-4-6.132197106914045E-5i      -1.5762966325284778E-4-5.7673384665547883E-5i     -1.4736203289516953E-4-5.04480308799844E-5i       -1.4097221542172154E-4-3.70723307379438E-5i       -1.5832810922795714E-4-9.024782915008391E-6i      -2.1652581321601383E-4+3.90740505487347E-5i       -2.4148480641974428E-4+5.7848118095829684E-5i     -1.4255040594146365E-4+5.485412053515257E-5i      -1.309582121411734E-4+3.113320260274006E-5i       -1.2586527001852665E-4-2.775371003983411E-6i      -1.2767880460485547E-4-2.9356283514058308E-5i     -1.3377730503487292E-4-4.8208685078825615E-5i     -1.3602423810390315E-4-5.6760500248614524E-5i     -1.3428334645547492E-4-6.0114264531417646E-5i     -1.2635083917787642E-4-5.5824582392179695E-5i     -1.1723057997044236E-4-4.7475164049250606E-5i     -1.1863532436326614E-4-3.0024416022558765E-5i     -1.410530315761452E-4-2.821417186286698E-6i       -1.8366431971924633E-4+3.054160960947486E-5i      -2.2017536857591265E-4+5.564952944465665E-5i      -2.0036473019020417E-4+6.029092645558214E-5i      -2.0417197182962012E-4+3.7145554013048203E-5i     -1.8356455363009237E-4-7.22810933686415E-6i       -2.00416975936636E-4-3.2711739147873854E-5i       -2.2531077724750805E-4-4.749339703559081E-5i      -2.5057254513521E-4-5.516108358951024E-5i         -2.6373220402354413E-4-5.797358675731772E-5i      -2.648706276190897E-4-5.601666115169303E-5i       -2.554292097859523E-4-4.7109839375721245E-5i      -2.4004511640878198E-4-3.625512177677699E-5i      -2.4071953156436875E-4-7.925577252908107E-6i      -2.7080564410032797E-4+3.5999522102369034E-5i     -2.903849683285327E-4+5.91183773046434E-5i
46                                                -2.89412540873004E-4+6.998778136268016E-5i        -3.373709444409112E-4+4.3026014236781856E-5i      -3.6257595946682106E-4+3.6814189230454003E-6i     -3.9734228560060726E-4-2.866584573503123E-5i      -4.4700556483292375E-4-4.820082700663666E-5i      -4.848852711931314E-4-5.936713744890877E-5i       -4.970151428310395E-4-6.146159861485538E-5i       -4.950103593704552E-4-5.835344839057962E-5i       -4.7371668595787904E-4-4.901454245185111E-5i      -4.4378756343109633E-4-2.6991726389371734E-5i     -4.239624889406052E-4+4.904294775703717E-6i       -4.1926979732540964E-4+4.323246144064238E-5i      -4.223718862479057E-4+7.169106938505567E-5i       -2.0731468304467616E-4+7.711941868428634E-5i      -1.8923819604304507E-4+4.7582332151521754E-5i     -1.691300274914607E-4-1.0222732593733159E-5i      -1.698471976033927E-4-4.191734963933022E-5i       -1.812202078911442E-4-5.537090660808707E-5i       -1.8928634446599624E-4-6.636977510081177E-5i      -1.9257860517576995E-4-6.907548766952383E-5i      -1.875524868704935E-4-6.489384106344941E-5i       -1.745648016734504E-4-5.6671738200801905E-5i      -1.6572856382427226E-4-4.1111044202075356E-5i     -1.8293715536481803E-4-7.774713427372168E-6i      -2.451545429466371E-4+4.998925399113135E-5i       -2.7226950204004816E-4+7.265087067878808E-5i      -1.786822349735495E-4+6.95039303294295E-5i        -1.6315480614084921E-4+4.082659642290703E-5i      -1.549442275760091E-4+5.127824366006292E-8i       -1.5587127589167834E-4-3.1636097631871046E-5i     -1.6307519921873688E-4-5.3717968950519315E-5i     -1.6594808523911407E-4-6.359366794972145E-5i      -1.6407616863022337E-4-6.743253361827819E-5i      -1.5446745468149266E-4-6.249672566225794E-5i      -1.429658118976638E-4-5.290467876992738E-5i       -1.426444621409522E-4-3.2439446003643745E-5i      -1.6533380744809218E-4-1.0588929914554182E-7i     -2.105849192561476E-4+3.9897214773173626E-5i      -2.4992683096927975E-4+7.014664236083004E-5i      -2.486338790669989E-4+7.59658982247724E-5i        -2.473160400126007E-4+4.7926628369907E-5i         -2.208889463716468E-4-5.46304773313282E-6i        -2.3663263622579632E-4-3.579024993935118E-5i      -2.6193742488186305E-4-5.312691321742222E-5i      -2.8781735220476047E-4-6.197508554637207E-5i      -3.0054111869577866E-4-6.522396641159514E-5i      -2.998726117258277E-4-6.305143809002455E-5i       -2.875513384177739E-4-5.280572050554789E-5i       -2.6913347034653485E-4-4.025846499895307E-5i      -2.688249145116669E-4-6.585154678434597E-6i       -3.015474625013909E-4+4.617514696559104E-5i       -3.232722046844681E-4+7.407839772239063E-5i
48                                                -3.640600331812541E-4+8.966335172370128E-5i       -4.0500064364375513E-4+5.6641395619147355E-5i     -4.241641526315073E-4+9.03539354822558E-6i        -4.5627608388651994E-4-2.9720536073862275E-5i     -5.058463367670698E-4-5.2802890318641626E-5i      -5.442971770010851E-4-6.574126792558304E-5i       -5.550907157431055E-4-6.81436266192926E-5i        -5.502005895712905E-4-6.466297598805444E-5i       -5.249201793589217E-4-5.38887632201584E-5i        -4.904124395881293E-4-2.805016431732835E-5i       -4.683211473453182E-4+1.0056869923478237E-5i      -4.639569884002673E-4+5.630189966741624E-5i       -4.685576588614876E-4+9.085915716519474E-5i       -2.550265098303136E-4+9.78535512724205E-5i        -2.3188839698071845E-4+6.196305961282477E-5i      -2.0662227484237821E-4-7.911171163705706E-6i      -2.0672432128153518E-4-4.5735634658230255E-5i     -2.1970527010835118E-4-6.128381664554935E-5i      -2.2882618781063055E-4-7.398740877220816E-5i      -2.3195698223450243E-4-7.703850682613755E-5i      -2.2496794473719802E-4-7.225780786811051E-5i      -2.0861015108418582E-4-6.294529395830415E-5i      -1.9663882818939175E-4-4.484686755382471E-5i      -2.132702024186055E-4-5.1002010296430345E-6i      -2.7965900687565345E-4+6.458126527663936E-5i      -3.091665311592678E-4+9.208229277632841E-5i       -2.2233702437072706E-4+8.883266758370443E-5i      -2.0234469726714598E-4+5.3993427343243227E-5i     -1.9077432889011545E-4+4.753306980454721E-6i      -1.9098320204186174E-4-3.314097079048174E-5i      -1.9982252029274617E-4-5.902267561106044E-5i      -2.0362236448601186E-4-7.040553176915065E-5i      -2.016844468782037E-4-7.478296433439247E-5i       -1.90021040838309E-4-6.911568618270932E-5i        -1.7552716128976548E-4-5.812631349254517E-5i      -1.7285651632371012E-4-3.409777411738263E-5i      -1.9545602014550136E-4+4.457042103537724E-6i      -2.434008036555047E-4+5.2631569333218534E-5i      -2.858214740173206E-4+8.92590391202699E-5i        -3.055072706788639E-4+9.64782209519493E-5i        -2.9839380963245975E-4+6.235239949536421E-5i      -2.656580195399945E-4-2.1571933417947225E-6i      -2.8049261045345506E-4-3.834173928300603E-5i      -3.0657232870190214E-4-5.86793740443865E-5i       -3.333749319487312E-4-6.885523905319222E-5i       -3.4568067744846696E-4-7.259087896633104E-5i      -3.428644005576512E-4-7.01990476782301E-5i        -3.269997298283615E-4-5.8438593929817096E-5i      -3.048268634421483E-4-4.3956882771754754E-5i      -3.029990749731876E-4-3.811601378779919E-6i       -3.3836573357774865E-4+5.983837039499621E-5i      -3.624488742635013E-4+9.368937766692084E-5i
50                                                -4.516886740946357E-4+1.1593477951786153E-4i      -4.8468429466178454E-4+7.527915311786178E-5i      -4.973548903713517E-4+1.7414820287441253E-5i      -5.269534172015138E-4-2.916954587992358E-5i       -5.76878896219615E-4-5.645966978007246E-5i        -6.16352893934779E-4-7.139924487031128E-5i        -6.25716593559088E-4-7.412709292985148E-5i        -6.174080077920149E-4-7.025665202144129E-5i       -5.872933732425326E-4-5.7853712634273535E-5i      -5.470330012427056E-4-2.7514666668014553E-5i      -5.218854916874985E-4+1.81808611369128E-5i        -5.175493659654834E-4+7.426096298060854E-5i       -5.237417846432452E-4+1.1647612590260869E-4i      -3.123486383055267E-4+1.2537844677240568E-4i      -2.8350534028163797E-4+8.151189367488732E-5i      -2.528248091446414E-4-3.385630931051757E-6i       -2.527033272053331E-4-4.867943498236359E-5i       -2.679220293577773E-4-6.66030890294163E-5i        -2.7856137515471115E-4-8.123889596584576E-5i      -2.815925311172055E-4-8.464633369370232E-5i       -2.721837073807225E-4-7.92009657990115E-5i        -2.516163238266228E-4-6.872445272290795E-5i       -2.3559527987215807E-4-4.768771426531746E-5i      -2.509989453417388E-4-1.2450258123635372E-7i      -3.215617853196302E-4+8.437755489203175E-5i       -3.537010155909424E-4+1.17965309447368E-4i        -2.754214636771717E-4+1.1470800797596802E-4i      -2.5038978657741556E-4+7.213383961429665E-5i      -2.3528791254590027E-4+1.2371267390384019E-5i     -2.3509992938380853E-4-3.3114960012256195E-5i     -2.4632433853898306E-4-6.346758853427995E-5i      -2.5147260273147544E-4-7.655065623065868E-5i      -2.4957204827069163E-4-8.151520699578979E-5i      -2.3536898138236162E-4-7.502839698594981E-5i      -2.170851129407343E-4-6.248875213087944E-5i       -2.112121952274824E-4-3.4242759827300025E-5i      -2.3315607388013233E-4+1.1902602335914575E-5i     -2.837294974522239E-4+7.021814726070421E-5i       -3.2944923361094813E-4+1.1483422071688168E-4i     -3.729313612043032E-4+1.2370333502792992E-4i      -3.592860353586543E-4+8.193482573475803E-5i       -3.198237805108736E-4+3.5949064589619817E-6i      -3.341197136644504E-4-3.971017091230948E-5i       -3.6150647227384367E-4-6.357011016758071E-5i      -3.896599321874373E-4-7.521809935694396E-5i       -4.015961775183968E-4-7.948686089173623E-5i       -3.962105442273421E-4-7.688597475445922E-5i       -3.759465683251664E-4-6.343047742140067E-5i       -3.4908166737660504E-4-4.6755136623300986E-5i     -3.449555899554594E-4+1.2739306236333126E-6i      -3.828091839848433E-4+7.845938748905471E-5i       -4.0944527641290557E-4+1.1977799966136856E-4i
50.5                                              -4.759527781249114E-4+1.2383532385559784E-4i      -5.068073014837208E-4+8.096882731512587E-5i       -5.177959112224849E-4+2.0160752166905017E-5i      -5.46812004002398E-4-2.86446653400112E-5i         -5.969243132599182E-4-5.710454775970155E-5i       -6.367457576028537E-4-7.257977698287417E-5i       -6.457399854121337E-4-7.539028261655895E-5i       -6.364798989538494E-4-7.142248345973968E-5i       -6.049955708310197E-4-5.858042650407771E-5i       -5.630705585070156E-4-2.6995640500723183E-5i      -5.369989739668447E-4+2.085457340107006E-5i       -5.325985244487168E-4+7.975805159026616E-5i       -5.391958553157862E-4+1.2418580977058142E-4i      -3.284428977243746E-4+1.336255179393301E-4i       -2.980691915236537E-4+8.74534289203428E-5i        -2.660180504235892E-4-1.7615259716470267E-6i      -2.659306497765563E-4-4.917164470808993E-5i       -2.8183532002269446E-4-6.773317929067604E-5i      -2.9294517809773976E-4-8.288854634721631E-5i      -2.9596728132634824E-4-8.638493170160164E-5i      -2.858655118449727E-4-8.076408608659047E-5i       -2.640873360200389E-4-6.998891019563217E-5i       -2.468761009446358E-4-4.815012147859432E-5i       -2.6183537173530115E-4+1.6284729185339763E-6i     -3.3341385786875836E-4+9.038717839128976E-5i      -3.662470919796781E-4+1.2573889583759125E-4i      -2.9043982840916486E-4+1.2250210942095691E-4i     -2.640561916261836E-4+7.769198475265641E-5i       -2.4805918305668116E-4+1.4908314399003278E-5i     -2.4784815917493246E-4-3.273510154996586E-5i      -2.598208445799803E-4-6.43229394069626E-5i        -2.6539057615093225E-4-7.786209012303457E-5i      -2.635222407744614E-4-8.297918578796638E-5i       -2.485923824623558E-4-7.627419462772497E-5i       -2.2920892371607033E-4-6.332515056100842E-5i      -2.223656459272184E-4-3.390809263057079E-5i       -2.440236806813878E-4+1.4389865967710802E-5i      -2.9522239128019627E-4+7.561434775757875E-5i      -3.4179443653355374E-4+1.2253699121943034E-4i     -3.9171209866476907E-4+1.3185989913237778E-4i     -3.763126968251623E-4+8.788175551837084E-5i       -3.351206583725787E-4+5.569776510012642E-6i       -3.49368330359584E-4-3.97497578737862E-5i         -3.771917345530733E-4-6.458084264918109E-5i       -4.0576906003844145E-4-7.661820151828127E-5i      -4.1762558947222643E-4-8.102661871361298E-5i      -4.11520942563011E-4-7.837672021537247E-5i        -3.899939269084031E-4-6.446995518137445E-5i       -3.617768594192934E-4-4.7204754287204776E-5i      -3.569158267697279E-4+3.0580241221402736E-6i      -3.953358191046052E-4+8.412901126624809E-5i       -4.2263476784889907E-4+1.276059028386424E-4i
51                                                -5.012622456077546E-4+1.323723393608013E-4i       -5.299116018498218E-4+8.715557023780824E-5i       -5.391999002505805E-4+2.3232180166422082E-5i      -5.676629739992079E-4-2.7912620170992793E-5i      -6.180092149530254E-4-5.759251128840403E-5i       -6.582239236777734E-4-7.361727121715398E-5i       -6.668427999060661E-4-7.650992412994975E-5i       -6.565864542211025E-4-7.244465211076854E-5i       -6.236615033419051E-4-5.9152416978562985E-5i      -5.799660775264205E-4-2.6270056267402532E-5i      -5.528934082049574E-4+2.3848805360439802E-5i      -5.483902555923437E-4+8.574105435130284E-5i       -5.553918534263545E-4+1.3252040132294722E-4i      -3.453241519177632E-4+1.4252296769688295E-4i      -3.133781491407578E-4+9.390213791886266E-5i       -2.799593241211081E-4+1.1363463306345782E-7i      -2.799533177778455E-4-4.9523453065866027E-5i      -2.966020707559741E-4-6.874076925038355E-5i       -3.082285570926392E-4-8.442948756861629E-5i       -3.112468733594393E-4-8.801300210581174E-5i       -3.004146391086083E-4-8.221318075948603E-5i       -2.773514957339115E-4-7.113943557560912E-5i       -2.588678072718415E-4-4.8470040328736575E-5i      -2.7331488634543626E-4+3.6409699972032996E-6i     -3.458866418551743E-4+9.690813099827903E-5i       -3.794262027067706E-4+1.3413268773034573E-4i      -3.0624372543519113E-4+1.3092908386107225E-4i     -2.7847033912471513E-4+8.374443658834644E-5i      -2.6158063283607084E-4+1.7761304792630596E-5i     -2.613869837554138E-4-3.215425846569979E-5i       -2.7418041657565186E-4-6.502795711201944E-5i      -2.802121132396804E-4-7.903385702942998E-5i       -2.7838646672482777E-4-8.430559531036403E-5i      -2.626881788908812E-4-7.737733570198473E-5i       -2.4213404018750417E-4-6.401109118467966E-5i      -2.3424138236693293E-4-3.337322324292486E-5i      -2.555528768824326E-4+1.7191275455415596E-5i      -3.0735529163342025E-4+8.149496718453639E-5i      -3.5478665314160753E-4+1.3086528727775129E-4i     -4.113486487829209E-4+1.4065945547549603E-4i      -3.9414589986593105E-4+9.433456888456902E-5i      -3.512120906254048E-4+7.815350481803114E-6i       -3.6545680125529324E-4-3.962194676892462E-5i      -3.9377006989956925E-4-6.546324015241716E-5i      -4.2281232558896416E-4-7.7896281904426E-5i        -4.345961198120073E-4-8.24457680676394E-5i        -4.277369287873327E-4-7.975046950161558E-5i       -4.0487296389896707E-4-6.538270146829264E-5i      -3.75221585021748E-4-4.751175481479549E-5i        -3.69546735493849E-4+5.101031935122901E-6i        -4.0849977948458223E-4+9.028736311492091E-5i      -4.364688553933622E-4+1.3605752718803303E-4i