% Model:              biconAndDipole_box_12.31.21.mph
% Version:            COMSOL 5.6.0.401
% Date:               Jan 1 2022, 14:41
% Table:              Table 8 - Global Evaluation 6
% freq (MHz)                                      abs(emw.Zport_2) (Ω)                              (emw.Zport_2) (Ω)
30                                                4689.643766631495                                 0.032286026911615986-4689.6437665203575i
35                                                4015.0808208237354                                0.07263358049545597-4015.080820166758i
40                                                3508.5115723381928                                0.0648094439433974-3508.5115717396106i
42                                                3339.4767378670995                                0.0651683153393341-3339.476737231235i
44                                                3185.7186502903924                                0.06377461650246842-3185.718649652043i
46                                                3045.2395581268925                                0.06301679635596517-3045.239557474872i
48                                                2916.378072530585                                 0.06296019254084602-2916.3780718509774i
50                                                2797.7390382393764                                0.06374499524254089-2797.7390375131786i
50.5                                              2769.5348814540907                                0.06311077536082332-2769.5348807350224i
51                                                2741.8779373444177                                0.06354621814524933-2741.877936608039i
51.5                                              2714.752264213756                                 0.06406330352438071-2714.7522634578663i
52                                                2688.1428995098345                                0.06466666821512397-2688.1428987320155i
52.5                                              2662.0350685284593                                0.06536442115790303-2662.0350677259703i
53                                                2636.4145505164897                                0.06616590248108868-2636.4145496862093i
53.5                                              2611.267655274761                                 0.0670818088940998-2611.267654413117i
54                                                2586.5811988425176                                0.06812442162297075-2586.5811979453997i
54.5                                              2562.3424777983914                                0.06930778787279339-2562.342476861052i
55                                                2538.5392512400254                                0.07064810639196478-2538.5392502569493i
55.5                                              2515.1597158770755                                0.07216399012631995-2515.159714841825i
56                                                2492.1924889064944                                0.07387690299345426-2492.1924878115155i
56.5                                              2469.6265875641957                                0.07581164575442603-2469.6265864005773i
57                                                2447.4514150083423                                0.07799692466146002-2447.4514137655146i
57.5                                              2425.6567384444706                                0.0804659965514554-2425.6567371098267i
58                                                2404.2326775989986                                0.08325750468875655-2404.2326761574136i
58.5                                              2383.16968930116                                  0.08641640353339887-2383.169687734382i
59                                                2362.4585522634175                                0.0899950783356608-2362.458550549289i
59.5                                              2342.090354366176                                 0.09405465793545585-2342.0903524776327i
60                                                2322.0564819691017                                0.09866654720987554-2322.0564798728806i
60.5                                              2302.3486069942087                                0.1039141988323431-2302.348604649177i
61                                                2282.9586791983465                                0.10989513400398893-2282.9586765533268i
61.5                                              2263.8789163067454                                0.11672306055591074-2263.8789132976904i
62                                                2245.101797100156                                 0.12452920085214278-2245.101793646522i
62.5                                              2226.620113014647                                 0.13344400515343063-2226.6201090159175i
63                                                2208.4283169768723                                0.14319701428836945-2208.4283123343434i
63.5                                              2190.5154955480853                                0.15552648561211066-2190.515490026899i
64                                                2172.8784244379276                                0.16902585497414846-2172.878417863759i
64.5                                              2155.510675879938                                 0.1845371494501013-2155.510667980659i
65                                                2138.4057937003186                                0.2023238563973822-2138.405784128949i
65.5                                              2121.5581333862274                                0.22266014841142123-2121.5581217019985i
66                                                2104.962313442319                                 0.2458049179328865-2104.9622990905045i
66.5                                              2088.613274351593                                 0.27196229149612655-2088.6132566452306i
67                                                2072.506287820808                                 0.3012248008786883-2072.506265930312i
67.5                                              2056.636949261742                                 0.33349547369496435-2056.63692222264i
68                                                2041.0011373571542                                0.36839123285717074-2041.0011041107i
68.5                                              2025.5949204717372                                0.40514084323939287-2025.5948799554665i
69                                                2010.4143976753592                                0.4425065464860308-2010.4143489759354i
69.5                                              1995.4554745100597                                0.4787747360247313-1995.4554170732354i
70                                                1980.7136104312187                                0.5118656550237183-1980.7135442918102i
70.5                                              1966.1836148472016                                0.5395885300744656-1966.183540806358i
71                                                1951.8595877439852                                0.5600107008575417-1951.859507407266i
71.5                                              1937.7350737053018                                0.5718385521058376-1937.7349893286134i
72                                                1923.8034055258604                                0.5746731066298192-1923.8033196934969i
72.5                                              1910.058135675276                                 0.569042687384604-1910.0580509109482i
73                                                1896.493399861803                                 0.5562129995301895-1896.4933182973464i
73.5                                              1883.1041111368459                                0.5378668361411089-1883.1040343219906i
74                                                1869.8859684542274                                0.515775914150998-1869.8858973202643i
74.5                                              1856.835330530548                                 0.491553654652093-1856.8352654668895i
75                                                1843.949034065252                                 0.4665194128698907-1843.9489750505063i
75.5                                              1831.2242150828952                                0.441658783581983-1831.224161822764i
76                                                1818.658178132491                                 0.4176420912286385-1818.6581301782023i
76.5                                              1806.2483659760271                                0.3948421949609219-1806.2483228201788i
77                                                1793.9922173851621                                0.37339691332559866-1793.9921785262266i
77.5                                              1781.885349851328                                 0.35364576156525607-1781.8853147577893i
78                                                1769.9378401992844                                0.3362963191430979-1769.9378082503615i
78.5                                              1758.120649342283                                 0.31973666208481183-1758.120620268188i
79                                                1746.4514725267647                                0.3046504844809344-1746.4514459551938i
79.5                                              1734.9227029750582                                0.2910169489756482-1734.9226785673814i
80                                                1723.5313361703847                                0.2786274675120914-1723.531313648814i
80.5                                              1712.274477611462                                 0.26737081570099075-1712.2744567365514i
81                                                1701.1492037379644                                0.2571413897180241-1701.1491843035449i
81.5                                              1690.1525129266063                                0.2478406988518188-1690.1524947551657i
82                                                1679.2812729981335                                0.23937859688938473-1679.2812559366341i
82.5                                              1668.5321490033368                                0.23167370375838545-1668.5321329195276i
83                                                1657.9014895802566                                0.2246534250326518-1657.9014743594603i
83.5                                              1647.3851450628895                                0.21825374306265113-1647.385130605221i
84                                                1636.97816126212                                  0.2124190481926715-1636.9781474800632i
84.5                                              1626.6742413670404                                0.2071022697174888-1626.674228183285i
85                                                1616.4647333260968                                0.20226601988265153-1616.4647206714617i
85.5                                              1606.3365821961447                                0.19788644457806448-1606.3365700072159i
86                                                1596.2677385998074                                0.19396435494562472-1596.2677268153898i
86.5                                              1586.2153899676186                                0.19055914945060598-1586.215378521257i
87                                                1576.079313135616                                 0.18791755924700945-1576.079301932814i
87.5                                              1565.5456847555108                                0.1872044685277138-1565.545673562764i
88                                                1552.8129462447366                                0.20016124967872453-1552.8129333441082i
88.5                                              1580.7738450295215                                0.7023531356685485-1580.773688998362i
89                                                1544.5386312804344                                0.18449344074611573-1544.538620261665i
89.5                                              1533.362708508424                                 0.17525312861510917-1533.3626984932923i
90                                                1523.5539304716851                                0.1718795754572775-1523.553920776397i
90.5                                              1514.1942773639094                                0.16950076748382203-1514.1942678768473i
91                                                1505.075225845145                                 0.16758105460736514-1505.075216515575i
91.5                                              1496.1224090997507                                0.16593614915075425-1496.1223998976943i
92                                                1487.3019924641774                                0.16449283160935232-1487.3019833678768i
92.5                                              1478.5957290069448                                0.16321528769476343-1478.5957199986574i
93                                                1469.9923966799017                                0.1620830812367252-1469.9923877441668i
93.5                                              1461.4842871565086                                0.1610838076855271-1461.4842782792346i
94                                                1453.065560823209                                 0.1602097164404529-1453.065551991139i
94.5                                              1444.7313824567789                                0.1594555213245695-1444.7313736571973i
95                                                1436.4774088037827                                0.15881684703085283-1436.4774000243926i
95.5                                              1428.3005041967128                                0.1580260016054869-1428.300495454779i
96                                                1420.1931589761643                                0.15786731707953042-1420.193150201974i
96.5                                              1412.1538052215985                                0.15756983739267166-1412.1537964306815i
97                                                1404.175801400459                                 0.15737197455721988-1404.1757925817847i
97.5                                              1396.2523409053217                                0.1572847630548489-1396.25233204643i
98                                                1388.3745483807024                                0.15731278524832848-1388.3745394683694i
98.5                                              1380.530223695915                                 0.1574652529034103-1380.530214715559i
99                                                1372.701566907199                                 0.15775937174695812-1372.7015578418568i
99.5                                              1364.860839860182                                 0.158227525928046-1364.8608306885694i
100                                               1356.9613424413562                                0.15893411026810636-1356.9613331337766i
100.5                                             1348.9164754017074                                0.16002083232396588-1348.9164659101386i
101                                               1340.5433059098682                                0.16185219674299933-1340.543296139153i
101.5                                             1331.3721591148046                                0.16566037928319394-1331.3721488083847i
102                                               1319.7178393985216                                0.17748616596508088-1319.7178274636449i
102.5                                             1291.3495118299888                                0.30204060207348277-1291.3494765070473i
103                                               1355.0191884872781                                0.34377384693157165-1355.0191448788698i
103.5                                             1322.0946152627564                                0.17938518994446204-1322.094603093035i
104                                               1310.3106770116242                                0.16875537209215208-1310.3106661445925i
104.5                                             1301.4005122711355                                0.1668751883687537-1301.4005015721507i
105                                               1293.4680334521045                                0.1670228332516285-1293.468022668449i
105.5                                             1286.0031433536385                                0.16816595082440844-1286.0031323584137i
106                                               1278.8208335485492                                0.16682709546447172-1278.820822666931i
106.5                                             1271.804273999039                                 0.16964760322813693-1271.8042626842832i
107                                               1264.922046900815                                 0.17127019322449188-1264.92203530584i
107.5                                             1258.136869555659                                 0.1730053018997709-1258.136857660755i
108                                               1251.4256393895405                                0.17488127817959462-1251.4256271700922i
108.5                                             1244.7688236918245                                0.17691990396279866-1244.7688111189468i
109                                               1238.1466324417438                                0.1791438907188219-1238.1466194818354i
109.5                                             1231.534907360966                                 0.18158843702651406-1231.5348939734604i
110                                               1224.8984893734012                                0.18431951979652061-1224.8984755054416i
110.5                                             1218.1767329510526                                0.18747920988620909-1218.176718524388i
111                                               1211.2410120603215                                0.1915164573388633-1211.2409969194234i
111.5                                             1203.7246057480834                                0.1979067330988458-1203.7245894789653i
112                                               1193.3257867261902                                0.2275937372613001-1193.3257650225992i
112.5                                             1199.7027124921808                                0.2798089232661465-1199.7026798619993i
113                                               1182.8388707697486                                0.2309566017496741-1182.8388482218963i
113.5                                             1148.38869357049                                  0.5072431971916165-1148.388581545844i
114                                               1206.1198233557009                                0.3310043427566793-1206.1197779357208i
114.5                                             1184.2455923711514                                0.22701233164606532-1184.2455706127425i
115                                               1174.6777794119535                                0.2204665067761462-1174.6777587230965i
115.5                                             1167.327165754644                                 0.22116819588087908-1167.3271448027754i
116                                               1160.6944323533664                                0.22406340176802414-1160.6944107264821i
116.5                                             1154.4593270271955                                0.22785754114591458-1154.459304540886i
117                                               1148.46109155052                                  0.2318138372257859-1148.4610681550143i
117.5                                             1142.6231291815684                                0.23589336432153435-1142.6231048315974i
118                                               1136.9041002048068                                0.23992391138205588-1136.9040748889142i
118.5                                             1131.279392105537                                 0.24371310025668363-1131.2793658538098i
119                                               1125.7332430175516                                0.24700691805216707-1125.7332159185835i
119.5                                             1120.2549327325796                                0.24944547799604186-1120.2549049607549i
120                                               1114.836751763932                                 0.250504069503233-1114.8367236197712i
120.5                                             1109.4728102029555                                0.24940980784471722-1109.4727821692568i
121                                               1104.1582330315443                                0.245028052002197-1104.1582058439797i
121.5                                             1098.888467997273                                 0.2357321551027864-1098.8884427127919i
122                                               1093.6584763040257                                0.21934075190454405-1093.658454308875i
122.5                                             1088.461660845953                                 0.19345338407541948-1088.4616436546207i
123                                               1083.287427298399                                 0.15754360606606815-1083.2874158425345i
123.5                                             1078.1248405674762                                0.11221406443549356-1078.124834727709i
124                                               1072.9589956839732                                0.07174060610038606-1072.9589932855988i
124.5                                             1067.78900463523                                  0.056410636231378306-1067.7890031451602i
125                                               1062.62866744558                                  0.07899883632360816-1062.628664509081i
125.5                                             1057.4924002123962                                0.1335145735215629-1057.4923917839i
126                                               1052.3782911515777                                0.20353934006687438-1052.3782714684164i
126.5                                             1047.2674524664153                                0.276391653402324-1047.2674159941907i
127                                               1042.128577321662                                 0.3467891311875158-1042.1285196211502i
127.5                                             1036.913525331212                                 0.414320290031337-1036.9134425560792i
128                                               1031.538947982475                                 0.4801468536253653-1031.5388362363244i
128.5                                             1025.8251650459656                                0.5470446148019107-1025.82501918396i
129                                               1019.2822104445426                                0.6192295873833797-1019.2820223487859i
129.5                                             1009.8802293461501                                0.7127717420156535-1009.8799778095794i
130                                               965.1061801278704                                 1.404438983223228-965.1051582455416i
130.5                                             1029.6354384081367                                0.8672381864985692-1029.6350731807088i
131                                               1014.3942505695948                                0.908412275542278-1014.3938438179657i
131.5                                             1006.9356324594112                                1.0002473913723422-1006.9351356575013i
132                                               1001.0204083488002                                1.105697649053935-1001.0197976880914i
132.5                                             995.6800566476892                                 1.2232532731396473-995.679305227027i
133                                               990.618906053609                                  1.3540573053213065-990.6179806361597i
133.5                                             985.7152052443898                                 1.4986808539549386-985.7140659469599i
134                                               980.906835772928                                  1.6567949621152105-980.9054365720029i
134.5                                             976.1538015427718                                 1.8281489303306673-976.1520896550361i
135                                               971.4226286645413                                 2.010533792311785-971.4205480817242i
135.5                                             966.6732825333644                                 2.198079270598991-966.6707834683688i
136                                               961.840102212293                                  2.384080200650773-961.8371475386834i
136.5                                             956.7899697386376                                 2.5590077680335654-956.7865476017658i
137                                               951.1823129134406                                 2.712904962666056-951.1784441134197i
137.5                                             943.6929799498835                                 2.84553039932386-943.6886898566909i
138                                               892.5767767245969                                 4.802453864680126-892.5638569788431i
138.5                                             922.661830946978                                  3.189813171259087-922.6563170424631i
139                                               958.0955749862471                                 2.858110613866142-958.0913119384531i
139.5                                             943.3794501810656                                 2.713203538360849-943.3755485226915i
140                                               936.1963288248471                                 2.5783512171916607-936.1927783368776i
140.5                                             910.2727250793473                                 7.376298307264318-910.242838063922i
141                                               925.9827417980404                                 2.2460244396599798-925.9800178632543i
141.5                                             920.2799769320777                                 2.0728830199273083-920.2776423982554i
142                                               910.9849793727037                                 1.980717601506436-910.9828260732846i
142.5                                             912.4862014109226                                 1.7430825512671708-912.4845365421565i
143                                               905.8023529639328                                 1.5915458037010823-905.800954744999i
143.5                                             899.0295685055087                                 1.4605509349555064-899.0283821093567i
144                                               890.594953282105                                  1.350782076001989-890.5939289032561i
144.5                                             876.435914763409                                  1.2878719457322776-876.4349685361857i
145                                               802.918108655822                                  2.1442381622302884-802.915245496152i
145.5                                             928.7820517637801                                 1.1811559481933955-928.781300710325i
146                                               897.9875475125635                                 0.9729724806647809-897.9870204029569i
146.5                                             883.3314965912912                                 0.8999709854705221-883.3310381292143i
147                                               866.4933518972356                                 0.8714798866080498-866.4929136495657i
147.5                                             813.5556915301978                                 1.1727762373951658-813.5548462255482i
148                                               967.2035240377343                                 1.1412834285139366-967.2028506901476i
148.5                                             903.990357502403                                  0.68875339580574-903.9900951205616i
149                                               888.5995027780396                                 0.6257899945339189-888.5992824238954i
149.5                                             879.6588800304858                                 0.585842926808876-879.6586849480619i
150                                               872.8547685863225                                 0.5531612580563244-872.854593306643i
150.5                                             867.0076441074209                                 0.5247740211594737-867.0074852923283i
151                                               861.6459242505492                                 0.49968755343941446-861.6457793605979i
151.5                                             856.5263268580941                                 0.47742031036600324-856.5261938031235i
152                                               851.4878938356736                                 0.4577045098978161-851.4877708195772i
152.5                                             846.38797280595                                   0.4404258141834514-846.3878582161182i