% Model:              biconAndDipole_fullFeature_addCablesV2_1.1.22.mph
% Version:            COMSOL 5.6.0.401
% Date:               Jan 5 2022, 16:48
% Table:              Table 1 - Global Evaluation 1 (emw.Vport_1)
% freq (MHz)                                      abs(emw.Vport_1) (V)                              Lumped port voltage (V)
30                                                8.923350643479848E-5                              -4.823353084833197E-5-7.507426438235828E-5i
35                                                1.2941102733420915E-4                             -8.167622377048945E-5-1.0038031911828316E-4i
40                                                1.8837613858057063E-4                             -1.3573685985431616E-4-1.3061804800032836E-4i
42                                                2.2838043715715445E-4                             -1.725513703886592E-4-1.4961165948243713E-4i
44                                                2.631036363916622E-4                              -2.0791823545537652E-4-1.6122509372811227E-4i
46                                                3.0976984748315814E-4                             -2.5527911814403803E-4-1.7547059653782833E-4i
48                                                3.6728502960947667E-4                             -3.147592661269434E-4-1.8927466117381418E-4i
50                                                4.203949061211658E-4                              -3.7502656793560136E-4-1.899656559356654E-4i
50.5                                              4.559282547908587E-4                              -4.084508446059514E-4-2.0257956722562887E-4i
51                                                4.7826893826234906E-4                             -4.320971630183797E-4-2.0502004540547356E-4i
51.5                                              5.014653011332291E-4                              -4.5678614200174206E-4-2.0691512442497895E-4i
52                                                5.260842654209758E-4                              -4.8305027842747254E-4-2.083916573058264E-4i
52.5                                              5.525526726997132E-4                              -5.113118023519398E-4-2.094628771004714E-4i
53                                                5.816697603111386E-4                              -5.423480910534644E-4-2.1023381790539938E-4i
53.5                                              6.163240490519817E-4                              -5.789994487040757E-4-2.112225647041666E-4i
54                                                6.98381006829226E-4                               -6.642003953627669E-4-2.1580979009245025E-4i
54.5                                              6.378696889646437E-4                              -6.07423457588448E-4-1.9471641756961893E-4i
55                                                6.865663026234923E-4                              -6.577538173618344E-4-1.968075294393674E-4i
55.5                                              7.266484764549843E-4                              -7.004219838178057E-4-1.934607270716189E-4i
56                                                7.670157941763316E-4                              -7.436358069185515E-4-1.879335392753072E-4i
56.5                                              8.092306785936804E-4                              -7.888509508798328E-4-1.8046736124067457E-4i
57                                                8.539381086565529E-4                              -8.366566529270785E-4-1.7092670513640907E-4i
57.5                                              9.015684228774679E-4                              -8.874280847902825E-4-1.5905035509302022E-4i
58                                                9.525016307952534E-4                              -9.414779166995221E-4-1.444945986351914E-4i
58.5                                              0.0010071282216273444                             -9.991090987156923E-4-1.2683951932175854E-4i
59                                                0.0010658949059175209                             -0.0010606527464241326-1.0558267833250526E-4i
59.5                                              0.0011294031020119076                             -0.0011265592511321765-8.009756876852718E-5i
60                                                0.0011987909244310755                             -0.0011977604369006428-4.9695234116497664E-5i
60.5                                              0.0012807756794938423                             -0.0012807078463808977-1.3181555345109207E-5i
61                                                0.0013303271351060356                             -0.0013300241909383122+2.8389045745156532E-5i
61.5                                              0.0014254021832719936                             -0.0014232005125225428+7.919397219572819E-5i
62                                                0.001519284998097437                              -0.001512911358308832+1.3901844246017693E-4i
62.5                                              0.0016196677397515753                             -0.0016060562810974977+2.0953951689180693E-4i
63                                                0.0017279977806326599                             -0.0017030356917546487+2.926529727871623E-4i
63.5                                              0.0018451986884421947                             -0.0018034051379692917+3.904972575764846E-4i
64                                                0.0019720599897768503                             -0.0019061709915876746+5.055024768567729E-4i
64.5                                              0.0021092856413202064                             -0.0020097234728376624+6.403885378462979E-4i
65                                                0.0022574561298453347                             -0.00211166401667888+7.981123096656849E-4i
65.5                                              0.0024169462627856063                             -0.002208575442474323+9.81745258248114E-4i
66                                                0.0025878009296936757                             -0.002295756245936126+0.0011942432377739125i
66.5                                              0.0027695652211002994                             -0.0023669543564238224+0.0014380607040506456i
67                                                0.0029610688278427616                             -0.002414168900890976+0.0017145603288286375i
67.5                                              0.0031601764106124622                             -0.0024276376068462003+0.0020231882255533017i
68                                                0.003363537563176499                              -0.0023961822849590192+0.002360443898114902i
68.5                                              0.003566401881715632                              -0.0023081157582054853+0.002718790913003116i
69                                                0.0037625992207257703                             -0.0021528650106564227+0.0030858264924809842i
69.5                                              0.003944803177785516                              -0.0019232694940334932+0.0034441989728798846i
70                                                0.004105164761297646                              -0.0016181453506706484+0.0037727951629399287i
70.5                                              0.004236294029519768                              -0.0012442828455182197+0.00404943789986881i
71                                                0.0043323994723757945                             -8.168745004951323E-4+0.004254691673750624i
71.5                                              0.004390256278279326                              -3.5776571841597505E-4+0.0043756546801247175i
72                                                0.004409671250070031                              1.0816745260661124E-4+0.004408344398511848i
72.5                                              0.004393279580325136                              5.573033618875296E-4+0.004357788250217151i
73                                                0.004345645883172605                              9.706887239295389E-4+0.004235847204889602i
73.5                                              0.004272559626435892                              0.0013359276498831443+0.004058332548686432i
74                                                0.004179033303930608                              0.0016466754861761666+0.003840934677729844i
74.5                                              0.004067695365868449                              0.0019007477363712397+0.0035962902597242155i
75                                                0.003931654402098855                              0.002094371292489587+0.0033273886497881193i
75.5                                              0.0036707127336229207                             0.0021688350756329743+0.00296146693168868i
76                                                0.004044725913458093                              0.0025847227402765183+0.003111111709806777i
76.5                                              0.0037732170969616147                             0.0025878392129331314+0.0027459525612816157i
77                                                0.003640593041435304                              0.00264258796805435+0.0025041259002776877i
77.5                                              0.0035342496676875777                             0.0026903435581800772+0.002291936354375643i
78                                                0.003378003704649499                              0.0026621731065099696+0.002079361291262487i
78.5                                              0.0033300151947858714                             0.002724830354726495+0.001914236332187295i
79                                                0.003248606599307589                              0.0027368606734333376+0.0017501538478884753i
79.5                                              0.0031715934979842132                             0.0027395174389993693+0.001598139392504319i
80                                                0.0030997427651309043                             0.0027357583960563496+0.001457405643048144i
80.5                                              0.003032903107547528                              0.002727224037312959+0.0013269326697590415i
81                                                0.0029707789359221634                             0.00271509322085891+0.0012057347503347533i
81.5                                              0.002913042491346747                              0.0027002595419971308+0.0010928929326540211i
82                                                0.002859360934956579                              0.002683404811530404+9.875644656483135E-4i
82.5                                              0.0028094029434767164                             0.0026650428173841073+8.889835095911611E-4i
83                                                0.0027628374284163135                             0.0026455481878884923+7.964580600496067E-4i
83.5                                              0.0027193266111581807                             0.0026251740100448877+7.093649520083992E-4i
84                                                0.0026785122021353936                             0.00260405801980815+6.271438801910225E-4i
84.5                                              0.0026399902756884387                             0.0025822138070314324+5.492909160961569E-4i
85                                                0.0026032645457449532                             0.002559497429560132+4.7535166267486127E-4i
85.5                                              0.002567653654070329                              0.002535525609886331+4.0491377955222E-4i
86                                                0.0025320892892475386                             0.002509482792452102+3.3759781265420736E-4i
86.5                                              0.0024946203238709118                             0.002479633228286341+2.7303775095776056E-4i
87                                                0.002450937957901175                              0.0024418497717636576+2.1087096912224333E-4i
87.5                                              0.002388722271985803                              0.002383969376304918+1.506124348165079E-4i
88                                                0.0022511307177705106                             0.002249283521493926+9.11764685972037E-5i
88.5                                              1.7691621223139793E-4                             -1.6357760314693288E-4+6.739223916008114E-5i
89                                                0.002799576122811507                              0.002799569026509173-6.3034297641878885E-6i
89.5                                              0.0026318182324767767                             0.0026310424847024454-6.389563747210312E-5i
90                                                0.00260919002318119                               0.002606468043672713-1.1915080520584019E-4i
90.5                                              0.0019475997775093503                             0.001941849260463686-1.495538130276384E-4i
91                                                0.002414489472902217                              0.00240537600907338-2.095845169134555E-4i
91.5                                              0.002425930339510089                              0.0024120120621705784-2.59491472112612E-4i
92                                                0.0024237953059329386                             0.0024041989256136445-3.0758935472597883E-4i
92.5                                              0.0024202304704121695                             0.0023940804451521177-3.548159410902346E-4i
93                                                0.0024177169226769087                             0.0023841368864647764-4.0155500843140054E-4i
93.5                                              0.0024172944924794205                             0.002375388288799225-4.481552641739558E-4i
94                                                0.0024200525751936477                             0.002368861156396661-4.951275476243267E-4i
94.5                                              0.00242832944151081                               0.002366709250570143-5.435726260343828E-4i
95                                                0.0024500423344971417                             0.002376151630701584-5.971690453652204E-4i
95.5                                              0.0025425156513847443                             0.002448458323928317-6.851552185618435E-4i
96                                                0.002113552024024155                              0.0020298871309086027-5.88778730957771E-4i
96.5                                              0.0023170024277237205                             0.0022157060597624034-6.776037978123937E-4i
97                                                0.0023460042634046653                             0.00222932845938449-7.306371357187111E-4i
97.5                                              0.002348227092504474                              0.0022159283564492003-7.770662758454789E-4i
98                                                0.0023400854409878946                             0.002248398394497116-6.486173993551978E-4i
98.5                                              0.002191119516997052                              0.0020475155882555217-7.801824489284796E-4i
99                                                0.002899359470237615                              0.0027108638867745787-0.0010283493205316804i
99.5                                              0.0026443411330101074                             0.0024344116786710317-0.0010325598319125466i
100                                               0.0026361073439228866                             0.002405274439362331-0.0010787570625652473i
100.5                                             0.0026730645205545554                             0.0024177494501726807-0.0011400708430782955i
101                                               0.0027503271299468583                             0.0024653108257919826-0.001219238226908333i
101.5                                             0.0029047794849752485                             0.0025792774212404553-0.0013360658069916534i
102                                               0.003320943423115721                              0.0029187749322143602-0.0015841142997311212i
102.5                                             0.008779384408227169                              0.00755004626586025-0.004480445510302743i
103                                               0.0012308276486312113                             0.0010602082928838092-6.25216023735345E-4i
103.5                                             0.001911158874395552                              0.0016299510553270554-9.978916776980818E-4i
104                                               0.002122720754755978                              0.001789752620689313-0.0011413715255811862i
104.5                                             0.002233375170526693                              0.001860566215432522-0.0012354181520101758i
105                                               0.002307635725203408                              0.0018983576157610826-0.001312029345295659i
105.5                                             0.0023710034556803446                             0.001924407895406698-0.001385031277244128i
106                                               0.0023416186851796302                             0.0018800088408621326-0.0013959745073111474i
106.5                                             0.0024263363181683192                             0.0019171466903720343-0.0014871639104208222i
107                                               0.0024661753753681412                             0.0019192176745865927-0.0015487493340197514i
107.5                                             0.002500187305159895                              0.0019150805879910979-0.001607296768609446i
108                                               0.002529207508469396                              0.0019053095625999098-0.001663335832465383i
108.5                                             0.0025433569695833156                             0.0018828399189393717-0.0017098475120245103i
109                                               0.0021296148869724566                             0.0018656550254502258-0.0010269327596425313i
109.5                                             0.0027240098069543435                             0.001946635222772159-0.0019054765120164112i
110                                               0.0027465782168164168                             0.0019201701342071254-0.001963832619341434i
110.5                                             0.0027999280646969073                             0.001914214447368339-0.00204337471281302i
111                                               0.0028908216600448504                             0.0019297557044862395-0.0021524155712100024i
111.5                                             0.003114856225467345                              0.0020247084345522645-0.0023670414150127566i
112                                               0.008045366106721043                              0.004718260242592708-0.0065165892976575355i
112.5                                             0.0017278267655725919                             0.0010851986133532227-0.0013445182413806393i
113                                               0.002578970256458813                              0.0015470212267400761-0.002063446851197012i
113.5                                             0.0023382683722857206                             0.0013509116020166444-0.0019085431156692628i
114                                               0.0026717528530237934                             0.0014941842276596103-0.0022148762496929787i
114.5                                             0.0012525561651382836                             6.797056823969495E-4-0.0010520917888393675i
115                                               0.0037011597359380205                             0.0019160282402705918-0.003166610044418854i
115.5                                             0.003385536696491387                              0.00166006799533644-0.0029505987484152204i
116                                               0.003339733209209027                              0.0015457069616865568-0.0029605080471580107i
116.5                                             0.003348422673643658                              0.001451264948885952-0.0030175759227409667i
117                                               0.003377670774170742                              0.00135615764699563-0.003093460246258622i
117.5                                             0.0034168114377084                                0.0012522416169798091-0.0031790708286476943i
118                                               0.00346095384969113                               0.001133986058718773-0.0032699047644118504i
118.5                                             0.0035068385491112833                             9.95956442505321E-4-0.003362437713053593i
119                                               0.0035513405311343458                             8.320257609690116E-4-0.0034524994860479726i
119.5                                             0.0035901383222098964                             6.33862196466061E-4-0.0035337390804205267i
120                                               0.0036162336328263746                             3.9030213805795843E-4-0.003595109167773911i
120.5                                             0.003616028134080555                              8.447893158902174E-5-0.0036150411860143i
121                                               0.003555546008145299                              -3.15174633755184E-4-0.003541549430161219i
121.5                                             0.003265060385838503                              -9.180523295239997E-4-0.0031333367587010864i
122                                               0.004176291764805141                              7.926582456309566E-4-0.004100378739874219i
122.5                                             0.0034825156294413075                             -0.0011340173603577998-0.003292707052822968i
123                                               0.002892335965615923                              -0.0016019028651134768-0.002408218127316674i
123.5                                             0.002038397696710958                              -0.001547757597044364-0.0013264658272070166i
124                                               9.055667809809557E-4                              -8.296732102692604E-4-3.628960718686684E-4i
124.5                                             3.274516029517934E-4                              3.2570169430607516E-4+3.380767075459244E-5i
125                                               0.0014397392600543582                             0.0014251757837924126-2.0426238575311324E-4i
125.5                                             0.0023364100871241552                             0.002194814714813863-8.009996647015813E-4i
126                                               0.003037389264088167                              0.002641246481156895-0.0014998501816429453i
126.5                                             0.0035989399682711614                             0.0028625434038111876-0.0021813331145234763i
127                                               0.0040732026197150325                             0.0029443814803439914-0.0028145332258583708i
127.5                                             0.004500978113653029                              0.0029423244079160972-0.003406102032847044i
128                                               0.004916777137086279                              0.002890019926947384-0.003977748387922668i
128.5                                             0.005360837717923217                              0.0028109850609889277-0.00456475016017364i
129                                               0.0059093028347170186                             0.0027319545159894196-0.0052398744751148i
129.5                                             0.006833724728664095                              0.002734466125332281-0.006262786015549743i
130                                               0.011583976041488574                              0.00379499946756686-0.010944700999613855i
130.5                                             0.0029433766596074044                             8.237350420284499E-4-0.0028257612674916525i
131                                               0.004995064681215756                              0.0010774742375356343-0.004877470700780894i
131.5                                             0.005430842817871104                              7.821296615902753E-4-0.005374228028738903i
132                                               0.007556102215668398                              0.0018226582396437276-0.007332980133280582i
132.5                                             0.007076700098870552                              2.831695555154543E-4-0.007071032406387604i
133                                               0.007400098486937468                              -3.0841522162064494E-4-0.007393668755593997i
133.5                                             0.0077645983683283385                             -9.461579960848116E-4-0.007706735551963093i
134                                               0.008128033362948189                              -0.0016619365062241558-0.007956311544835224i
134.5                                             0.008474638424446854                              -0.002458693566538462-0.008110137013082667i
135                                               0.00878912625485095                               -0.00332649219225773-0.008135305158293613i
135.5                                             0.00905224958320698                               -0.004241425372062817-0.007997095305790267i
136                                               0.009238584079729084                              -0.005162581672051084-0.007661539419570059i
136.5                                             0.009308428294093778                              -0.0060257343661702075-0.007094882849958901i
137                                               0.009043202918236296                              -0.006645862077278777-0.006132865257788181i
137.5                                             0.00925211152178429                               -0.007438326934976692-0.005502077791156161i
138                                               0.00871867707624295                               -0.007621506491203002-0.004234143214908399i
138.5                                             0.007378762727765731                              -0.00677988583664174-0.0029119216051895205i
139                                               0.0042843596664353814                             -0.004151617377306716-0.001058211181108571i
139.5                                             0.03360416212884339                               -0.021661991118215325-0.02569042337478993i
140                                               0.010034846115568423                              -0.00952950487255096-0.0031443081030913876i
140.5                                             0.00961381752390558                               -0.009544782130968021-0.0011500528054431195i
141                                               0.008367396219549062                              -0.008367385913632614-1.3132679332400761E-5i
141.5                                             0.006446872113602362                              -0.006412793227493177+6.619992980067541E-4i
142                                               0.027899862593570385                              -0.027823406317848617-0.0020640720946734524i
142.5                                             0.009237195235165061                              -0.009016941792596008+0.0020051275574116444i
143                                               0.007717447073807821                              -0.00738093188862226+0.0022540704941380885i
143.5                                             0.006705440906328945                              -0.006269282728058642+0.0023788719645948015i
144                                               0.005670170113321222                              -0.005169852591118001+0.0023288308869713324i
144.5                                             0.004151795529501121                              -0.0036828263278785435+0.0019168193335497574i
145                                               1.8611089784987178E-4                             1.224039124801489E-4-1.4019468074088064E-4i
145.5                                             0.030048383250166084                              -0.026582316783625565+0.014010202366983866i
146                                               0.01100449811011478                               -0.008972409711732559+0.006371408213285899i
146.5                                             0.007850381485128732                              -0.006789133106972858+0.00394159372815833i
147                                               0.008540418218033686                              -0.0066645905891484815+0.00534059693460901i
147.5                                             0.016230152680562816                              -0.01186693129001082+0.011072208352110363i
148                                               0.002778539223795898                              -0.00202373724840317+0.0019038822882725388i
148.5                                             0.003901372321494992                              -0.002711503918454188+0.002805076200593276i