% Model:              biconAndDipole_fullFeature_addCablesV2_1.1.22.mph
% Version:            COMSOL 5.6.0.401
% Date:               Jan 5 2022, 16:52
% Table:              Table 8 - s22
% freq (MHz)                                      abs(emw.S22) (1)                                  S22 (1)
30                                                0.9999329477094673                                0.9997051965452072-0.021340569707784952i
35                                                0.9999326694485219                                0.9996219702471368-0.02492508835850421i
40                                                0.9999325797056284                                0.9995256908648176-0.028522925129835758i
42                                                0.9999325117671363                                0.9994834258445913-0.029965138926650484i
44                                                0.9999324750070945                                0.9994389813469143-0.031411417320074894i
46                                                0.9999323949377179                                0.9993923228243594-0.03285999886809989i
48                                                0.9999322991563144                                0.9993434504389863-0.03431138237865837i
50                                                0.999932181999187                                 0.9992923415376617-0.0357656922459587i
50.5                                              0.9999321488979515                                0.9992792087564766-0.036129840114581036i
51                                                0.9999321232165856                                0.99926594804354-0.036494055969078745i
51.5                                              0.9999320807680556                                0.9992525256431324-0.03685859662215071i
52                                                0.9999320359362953                                0.9992389612408794-0.037223310303529454i
52.5                                              0.9999319709791817                                0.9992252327439441-0.037588307146261324i
53                                                0.9999319110668826                                0.9992113683103417-0.03795350061908049i
53.5                                              0.9999318310654922                                0.9991973373871594-0.038319025775703765i
54                                                0.9999313899771138                                0.999182751882224-0.038686082802849124i
54.5                                              0.9999317508436969                                0.999168991299215-0.039049112300414406i
55                                                0.9999316799147953                                0.9991545303407683-0.03941559331969189i
55.5                                              0.9999315940333255                                0.9991399258139398-0.039781922911571975i
56                                                0.9999315030852673                                0.9991251739662385-0.04014844466845326i
56.5                                              0.9999314022396198                                0.9991102693297097-0.04051516882363056i
57                                                0.9999312885372271                                0.999095207484674-0.040882125395773156i
57.5                                              0.99993116101799                                  0.9990799868908128-0.041249322043381026i
58                                                0.9999310181802281                                0.9990646055465341-0.041616764207418715i
58.5                                              0.999930857857118                                 0.9990490607643355-0.041984457609584976i
59                                                0.9999306773580676                                0.9990333492600149-0.04235240947196766i
59.5                                              0.9999304530446499                                0.9990174434924357-0.042720703691732524i
60                                                0.9999302125535316                                0.9990013741493623-0.04308926113356715i
60.5                                              0.9999299007791494                                0.9989850680245836-0.043458489804842355i
61                                                0.9999297208511613                                0.9989688385599707-0.04382586254284799i
61.5                                              0.9999293571250539                                0.9989521832309802-0.04419564298187949i
62                                                0.9999289430293465                                0.9989353451292682-0.04456531565305094i
62.5                                              0.9999284932810931                                0.9989183261347065-0.04493516871708835i
63                                                0.999927975721225                                 0.9989010908887863-0.04530526736638383i
63.5                                              0.9999273789716174                                0.9988836266003134-0.045675636031195815i
64                                                0.9999266909237868                                0.9988659209484454-0.0460462722661491i
64.5                                              0.9999258973912473                                0.9988479596378738-0.04641717140183852i
65                                                0.9999249828890348                                0.998829727278917-0.0467883245004645i
65.5                                              0.9999239314058548                                0.9988112082367085-0.04715971690825894i
66                                                0.9999227276271843                                0.9987923879168666-0.047531327192827016i
66.5                                              0.9999213589749223                                0.9987732548781417-0.04790312593535004i
67                                                0.9999198187298648                                0.9987538040086013-0.04827507500889236i
67.5                                              0.9999181103715654                                0.9987340408745351-0.04864712784393905i
68                                                0.9999162529283243                                0.9987139869773428-0.04901923179774095i
68.5                                              0.9999142864745716                                0.99869368500011-0.049391333620915766i
69                                                0.9999122761219187                                0.9986732023537196-0.049763388549040125i
69.5                                              0.999910312309226                                 0.9986526308473389-0.05013537238340252i
70                                                0.9999085049990213                                0.9986320802020923-0.05050729413282516i
70.5                                              0.9999069700501454                                0.9986116638367943-0.05087920600767599i
71                                                0.999905809292138                                 0.9985914787125446-0.05125120582834283i
71.5                                              0.9999050904494141                                0.998571585573301-0.05162342871482544i
72                                                0.9999048346353531                                0.9985519972344205-0.05199603010137252i
72.5                                              0.9999050161354203                                0.998532679235176-0.05236916833592243i
73                                                0.99990555149082                                  0.9985135379716435-0.05274302218788965i
73.5                                              0.9999064055317699                                0.9984945308172937-0.05311771598456522i
74                                                0.9999074799661978                                0.9984755437659442-0.05349352291309923i
74.5                                              0.999908724089788                                 0.9984564936673619-0.05387101970767938i
75                                                0.9999101709848136                                0.9984372991865091-0.05425227766673335i
75.5                                              0.999912380582665                                 0.9984175211683753-0.05465548706661526i
76                                                0.9999082278219324                                0.998397302880582-0.05494806335783786i
76.5                                              0.9999117961725451                                0.9983784073324223-0.0553548181948161i
77                                                0.9999131957585929                                0.9983584637115832-0.055738469548504484i
77.5                                              0.9999142328257747                                0.9983381598397727-0.05611944061815054i
78                                                0.9999157305798035                                0.9983182420081175-0.05649916755814995i
78.5                                              0.9999161661339095                                0.9982970600188129-0.05687986685753577i
79                                                0.9999168730250196                                0.998276011375727-0.05726044072396471i
79.5                                              0.9999175414040363                                0.9982547619001735-0.057641304210788426i
80                                                0.999918147637428                                 0.9982332821765904-0.058022550181951384i
80.5                                              0.9999186968207796                                0.9982115730407792-0.05840424384596875i
81                                                0.9999191941309529                                0.9981896366031053-0.05878642844785402i
81.5                                              0.9999196446711806                                0.998167474790275-0.05916914795859111i
82                                                0.9999200531866408                                0.9981450887651561-0.05955245199631342i
82.5                                              0.9999204240075767                                0.9981224785541577-0.05993640089625976i
83                                                0.9999207611053909                                0.9980996427130097-0.06032107182193115i
83.5                                              0.9999210681948315                                0.9980765778616245-0.06070656755180136i
84                                                0.9999213488585194                                0.9980532778995719-0.06109303051053198i
84.5                                              0.9999216067075166                                0.9980297326147745-0.06148066669631531i
85                                                0.9999218456333849                                0.9980059251165199-0.06186978913164461i
85.5                                              0.9999220702550259                                0.9979818267614567-0.06226090295653119i
86                                                0.9999222868069395                                0.9979573861703229-0.06265488840718174i
86.5                                              0.999922502064179                                 0.9979324963072819-0.06305349275182787i
87                                                0.9999227413616971                                0.997906939782182-0.06346044616020269i
87.5                                              0.9999230419395818                                0.9978800441661972-0.06388667510971986i
88                                                0.9999234791256867                                0.9978486629718657-0.06438175139026216i
88.5                                              0.999871283085942                                 0.9976347040720245-0.06683995789235707i
89                                                0.9999193509347439                                0.9978252355363927-0.06468004097480175i
89.5                                              0.9999211343424877                                0.9977910766119229-0.06523221856097812i
90                                                0.9999208753781665                                0.9977580958469278-0.06573080852196883i
90.5                                              0.9998909048375766                                0.9977670867311268-0.06513572148205446i
91                                                0.9999224020556128                                0.9977201706639851-0.06632700191396403i
91.5                                              0.9999226120137716                                0.9976907269224554-0.066771576508168i
92                                                0.9999226666776265                                0.9976629953290509-0.06718546782423972i
92.5                                              0.9999226877114672                                0.9976356424259101-0.06759072689035035i
93                                                0.9999226872956516                                0.9976083392363758-0.06799251469535147i
93.5                                              0.9999226660249511                                0.9975809543079429-0.06839281857402624i
94                                                0.9999226195780789                                0.9975534167506755-0.06879262949575697i
94.5                                              0.9999225308915507                                0.9975256657052007-0.06919258662573817i
95                                                0.9999223191758464                                0.9974975711606852-0.06959338987674751i
95.5                                              0.9999213984573528                                0.9974684198128165-0.06999681827791134i
96                                                0.9999235063961183                                0.9974431029572701-0.07038661098874198i
96.5                                              0.9999230729037604                                0.9974136925887407-0.07079602786733154i
97                                                0.9999228833995856                                0.997384577932532-0.07120236266084319i
97.5                                              0.9999228139542757                                0.9973552628912724-0.0716108472880886i
98                                                0.999922205790801                                 0.997324906936635-0.0720239379468617i
98.5                                              0.9999226101534262                                0.997294581659878-0.07244821383505315i
99                                                0.9999159048916004                                0.9972604971019708-0.07282388190091346i
99.5                                              0.9999203595086564                                0.997232413388149-0.07326826767413336i
100                                               0.999920508816454                                 0.9972000567734793-0.07370936658746854i
100.5                                             0.9999201779140621                                0.9971657047708465-0.07416818339794004i
101                                               0.9999194349304797                                0.9971279576180333-0.07466399726896171i
101.5                                             0.9999178105126442                                0.9970823951877628-0.07524842182421067i
102                                               0.9999124353942054                                0.9970086201858953-0.07614912823524637i
102.5                                             0.9997002281276051                                0.9962331204996138-0.08318723302278844i
103                                               0.9999236777511173                                0.9971537048031479-0.07437640973236669i
103.5                                             0.9999242100630656                                0.9970625305866789-0.07559587270700564i
104                                               0.9999235121394012                                0.9970126688805017-0.07624151245203885i
104.5                                             0.999922968410628                                 0.9969721238018925-0.07676279774126091i
105                                               0.9999225369282144                                0.9969350156199995-0.07723764941858076i
105.5                                             0.9999221213212487                                0.9968993847452188-0.07769083216306985i
106                                               0.9999222771767012                                0.9968651775520856-0.0781305201460266i
106.5                                             0.9999217027006432                                0.9968303091825349-0.07856682650333673i
107                                               0.999921395838746                                 0.9967958529673737-0.07899889469576041i
107.5                                             0.9999211169870771                                0.9967613399889643-0.07942966259583571i
108                                               0.9999208556312982                                0.9967266240810831-0.0798608438119365i
108.5                                             0.9999206161311106                                0.9966915463084927-0.0802944585958813i
109                                               0.9998944160540465                                0.996627917228135-0.08075665828631186i
109.5                                             0.9999192000257101                                0.9966195465738542-0.08116579308416355i
110                                               0.9999190386350438                                0.9965825889487796-0.081616341678478i
110.5                                             0.9999185444701334                                0.9965440343531832-0.08207973666107747i
111                                               0.999917670135423                                 0.9965027538818808-0.08256881102983311i
111.5                                             0.9999153472604149                                0.9964541823677422-0.08312499100000194i
112                                               0.9997607481867298                                0.9961320578207835-0.08510274376670253i
112.5                                             0.9999097372226394                                0.9963625640440427-0.08414941214428524i
113                                               0.9999163536548746                                0.9962986100794289-0.08498113826172535i
113.5                                             0.9998616069772127                                0.9958303658458891-0.08969456820954567i
114                                               0.9999088339602384                                0.9965096586051005-0.08237825282481873i
114.5                                             0.9999205555386456                                0.9963427847838772-0.0845113755527754i
115                                               0.999908959113541                                 0.9963161177599894-0.08468836996416992i
115.5                                             0.9999128465571543                                0.9962623945117346-0.08536358703672176i
116                                               0.9999134379584693                                0.996216641483636-0.08590277434978635i
116.5                                             0.9999134050455029                                0.9961739472238917-0.08639609054849026i
117                                               0.9999131368706423                                0.9961327455286482-0.08686676333354029i
117.5                                             0.9999127508038655                                0.9960923304745763-0.08732455777088548i
118                                               0.9999123000937571                                0.9960523346755967-0.08777445224027798i
118.5                                             0.9999118139291343                                0.9960125435386653-0.08821932185575845i
119                                               0.9999113413306566                                0.9959728625127342-0.08866085754076118i
119.5                                             0.9999109116999466                                0.9959332145587471-0.08910030008534851i
120                                               0.9999106034995124                                0.9958936106911941-0.08953843406725166i
120.5                                             0.9999105568357066                                0.9958541402218573-0.08997584717288563i
121                                               0.9999111097167945                                0.9958151031464821-0.0904129840257059i
121.5                                             0.9999138057732366                                0.9957780123787339-0.09085025613049316i
122                                               0.999904209674923                                 0.9957275154215898-0.09129700738786575i
122.5                                             0.9999116613090574                                0.9956952049626385-0.09172998002969585i
123                                               0.9999168371374668                                0.9956595624102057-0.09217221366612054i
123.5                                             0.9999226343797368                                0.9956238583970628-0.09261969194214774i
124                                               0.9999272095469026                                0.9955861358313898-0.0930734684675322i
124.5                                             0.9999281378250204                                0.9955440560686342-0.09353241812668615i
125                                               0.9999253402914076                                0.995497720443796-0.09399454637420664i
125.5                                             0.9999205630793508                                0.995448880462309-0.09445982667389262i
126                                               0.9999152476833256                                0.9953987830790284-0.09493031757239548i
126.5                                             0.9999099755540922                                0.9953476896106118-0.09540930771891391i
127                                               0.9999048065034208                                0.9952951970289625-0.09590147464831918i
127.5                                             0.99989956390499                                  0.9952403827503371-0.09641430620168205i
128                                               0.999893911271657                                 0.9951815256557872-0.09696166660877893i
128.5                                             0.9998872093559937                                0.9951149821752432-0.0975735808714754i
129                                               0.999877806229803                                 0.9950309740165793-0.09833101310645188i
129.5                                             0.9998583971977634                                0.9948895608089418-0.09955689951114056i
130                                               0.9996717718048891                                0.9940956979218714-0.10543905688478901i
130.5                                             0.999898870892289                                 0.9953722708775682-0.0950357531653617i
131                                               0.9998900331538435                                0.9951063697488122-0.09769028245293698i
131.5                                             0.99987186597981                                  0.9950272839380788-0.09830794778021248i
132                                               0.9998355558420433                                0.9948942810473201-0.09927994895901034i
132.5                                             0.9998571416461703                                0.9948512224796482-0.09992671730623096i
133                                               0.999850886815836                                 0.9947874470281662-0.1004974183827476i
133.5                                             0.9998432176458858                                0.9947246184630503-0.10104154242694989i
134                                               0.9998351370869009                                0.9946621914172723-0.1015747326778245i
134.5                                             0.9998270501031529                                0.9945996276969125-0.10210636955222578i
135                                               0.999819375513401                                 0.994536517843259-0.10264452410241945i
135.5                                             0.9998126675116306                                0.994472405834593-0.10319885731091719i
136                                               0.9998076177545966                                0.9944063725548903-0.10378457853817301i
136.5                                             0.9998052790724461                                0.9943363579798813-0.1044308539677681i
137                                               0.9998107841909344                                0.994259304655944-0.1052142542128675i
137.5                                             0.9998010598494866                                0.9941330856400877-0.106308829886678i
138                                               0.9997788500848962                                0.9938071165315241-0.10911078868918113i
138.5                                             0.9992783757836591                                0.9949147470815489-0.09328407339136383i
139                                               0.9998375220573428                                0.9944252861088714-0.10389138973493742i
139.5                                             0.998105606465489                                 0.9926568138528937-0.1041501395546974i
140                                               0.9997664756444811                                0.9941707300476391-0.10562937725429916i
140.5                                             0.999795784860061                                 0.9941002670298585-0.10656580368537277i
141                                               0.9998278673644948                                0.9940509253549769-0.10732437821645224i
141.5                                             0.9998665569927121                                0.9940016156034736-0.10813842966376369i
142                                               0.9987317803454449                                0.9931073329788787-0.10584419802502437i
142.5                                             0.9998059889386266                                0.9938622464456955-0.10885701910056443i
143                                               0.9998422771122291                                0.9938122696055931-0.10964374985537245i
143.5                                             0.9998623358029302                                0.9937478350925935-0.11040801966376872i
144                                               0.9998794617724277                                0.9936693796569891-0.11126590675680602i
144.5                                             0.9998981691115664                                0.9935599341204674-0.11240554213736592i
145                                               0.9999084105830848                                0.9932895565864382-0.11485941986231608i
145.5                                             0.998484654406739                                 0.9932383666955253-0.10222109376126906i
146                                               0.9997481699605691                                0.9935045571449266-0.11155760069027222i
146.5                                             0.9998330092944413                                0.9933334107202292-0.11381907406799063i
147                                               0.9998090959031765                                0.9929422316011823-0.11697842943718774i
147.5                                             0.99914329800897                                  0.9891294788048546-0.14110352268982504i
148                                               0.9998810296487732                                0.9943472103484838-0.10505093394957975i
148.5                                             0.9998806245728917                                0.9938002209894129-0.11010169915886885i
149                                               0.9998998020917131                                0.993606880239431-0.11200438278885419i
149.5                                             0.9999026814456576                                0.9934758589693978-0.11318608574923653i
150                                               0.9999038235002111                                0.9933699562067528-0.11412180491096074i
150.5                                             0.9999042178688923                                0.9932630756796723-0.1150517596708493i
151                                               0.9997914364164886                                0.9931151815285431-0.11534796291775001i
151.5                                             0.999883500237611                                 0.9931027657801835-0.11624934686769824i
152                                               0.9998943890794999                                0.9930244930679236-0.11700916835812279i