% Model:              biconAndDipole_fullFeature_addCablesV1_1.1.22.mph
% Version:            COMSOL 5.6.0.401
% Date:               Jan 2 2022, 12:51
% Table:              Table 6 - Point Evaluation 1
% freq (MHz)             abs(emw.Ex) (V/m), Point: (-0.6, 0, 0.4)abs(emw.Ex) (V/m), Point: (-0.5, 0, 0.4)abs(emw.Ex) (V/m), Point: (-0.4, 0, 0.4)abs(emw.Ex) (V/m), Point: (-0.3, 0, 0.4)abs(emw.Ex) (V/m), Point: (-0.2, 0, 0.4)abs(emw.Ex) (V/m), Point: (-0.1, 0, 0.4)abs(emw.Ex) (V/m), Point: (-1.1102E-16, 0, 0.4)abs(emw.Ex) (V/m), Point: (0.1, 0, 0.4)abs(emw.Ex) (V/m), Point: (0.2, 0, 0.4)abs(emw.Ex) (V/m), Point: (0.3, 0, 0.4)abs(emw.Ex) (V/m), Point: (0.4, 0, 0.4)abs(emw.Ex) (V/m), Point: (0.5, 0, 0.4)abs(emw.Ex) (V/m), Point: (0.6, 0, 0.4)abs(emw.Ex) (V/m), Point: (-0.6, 0.4, 2.4493E-17)abs(emw.Ex) (V/m), Point: (-0.5, 0.4, 2.4493E-17)abs(emw.Ex) (V/m), Point: (-0.4, 0.4, 2.4493E-17)abs(emw.Ex) (V/m), Point: (-0.3, 0.4, 2.4493E-17)abs(emw.Ex) (V/m), Point: (-0.2, 0.4, 2.4493E-17)abs(emw.Ex) (V/m), Point: (-0.1, 0.4, 2.4493E-17)abs(emw.Ex) (V/m), Point: (-1.1102E-16, 0.4, 2.4493E-17)abs(emw.Ex) (V/m), Point: (0.1, 0.4, 2.4493E-17)abs(emw.Ex) (V/m), Point: (0.2, 0.4, 2.4493E-17)abs(emw.Ex) (V/m), Point: (0.3, 0.4, 2.4493E-17)abs(emw.Ex) (V/m), Point: (0.4, 0.4, 2.4493E-17)abs(emw.Ex) (V/m), Point: (0.5, 0.4, 2.4493E-17)abs(emw.Ex) (V/m), Point: (0.6, 0.4, 2.4493E-17)abs(emw.Ex) (V/m), Point: (-0.6, 4.8986E-17, -0.4)abs(emw.Ex) (V/m), Point: (-0.5, 4.8986E-17, -0.4)abs(emw.Ex) (V/m), Point: (-0.4, 4.8986E-17, -0.4)abs(emw.Ex) (V/m), Point: (-0.3, 4.8986E-17, -0.4)abs(emw.Ex) (V/m), Point: (-0.2, 4.8986E-17, -0.4)abs(emw.Ex) (V/m), Point: (-0.1, 4.8986E-17, -0.4)abs(emw.Ex) (V/m), Point: (-1.1102E-16, 4.8986E-17, -0.4)abs(emw.Ex) (V/m), Point: (0.1, 4.8986E-17, -0.4)abs(emw.Ex) (V/m), Point: (0.2, 4.8986E-17, -0.4)abs(emw.Ex) (V/m), Point: (0.3, 4.8986E-17, -0.4)abs(emw.Ex) (V/m), Point: (0.4, 4.8986E-17, -0.4)abs(emw.Ex) (V/m), Point: (0.5, 4.8986E-17, -0.4)abs(emw.Ex) (V/m), Point: (0.6, 4.8986E-17, -0.4)abs(emw.Ex) (V/m), Point: (-0.6, -0.4, -7.3479E-17)abs(emw.Ex) (V/m), Point: (-0.5, -0.4, -7.3479E-17)abs(emw.Ex) (V/m), Point: (-0.4, -0.4, -7.3479E-17)abs(emw.Ex) (V/m), Point: (-0.3, -0.4, -7.3479E-17)abs(emw.Ex) (V/m), Point: (-0.2, -0.4, -7.3479E-17)abs(emw.Ex) (V/m), Point: (-0.1, -0.4, -7.3479E-17)abs(emw.Ex) (V/m), Point: (-1.1102E-16, -0.4, -7.3479E-17)abs(emw.Ex) (V/m), Point: (0.1, -0.4, -7.3479E-17)abs(emw.Ex) (V/m), Point: (0.2, -0.4, -7.3479E-17)abs(emw.Ex) (V/m), Point: (0.3, -0.4, -7.3479E-17)abs(emw.Ex) (V/m), Point: (0.4, -0.4, -7.3479E-17)abs(emw.Ex) (V/m), Point: (0.5, -0.4, -7.3479E-17)abs(emw.Ex) (V/m), Point: (0.6, -0.4, -7.3479E-17)
30                       3.634874422511625E-5     4.429887110417944E-5     1.012998371601646E-4     1.4837600120234034E-4    2.0816707875648334E-4    2.472528850313741E-4     2.6623981228991E-4       2.752132987047333E-4     2.689050664802967E-4     2.5562562879799533E-4    2.4066206713106242E-4    2.324774784011077E-4     2.2864323200813395E-4    2.1525147525157944E-5    2.274888939262697E-5     2.9127193958945812E-5    3.885908420644131E-5     4.760652832418251E-5     5.4974933513964927E-5    6.0188810023246246E-5    6.193714975900609E-5     6.019113675555048E-5     6.030494510865946E-5     7.102672409868007E-5     1.0790398812381224E-4    1.2599300047748692E-4    1.6710079583844595E-5    1.7910708776030603E-5    2.6553206117445507E-5    3.662564184276653E-5     4.2921322697448635E-5    4.522960153976663E-5     4.4312064627713864E-5    4.142160840033096E-5     3.799011638434516E-5     3.943765593633637E-5     5.470883911898984E-5     8.384896688145999E-5     1.0582662505119029E-4    1.5174538850369767E-5    3.974986478965987E-5     5.199912250302632E-5     8.178041050294558E-5     1.2841226278310444E-4    2.033416959423601E-4     NaN                      5.6505790507988775E-5    1.0553684522619245E-4    1.1787467467098533E-4    1.268634819394262E-4     1.477921155735926E-4     1.6000309332471678E-4
35                       3.862270393120375E-5     1.0556647362007586E-4    1.549731808462792E-4     1.978680945474221E-4     2.566033473945249E-4     2.946799464744502E-4     3.1195106643527534E-4    3.182319842610087E-4     3.083292467104172E-4     2.9190998070927624E-4    2.758366670432743E-4     2.6911007744272696E-4    2.6735157254211683E-4    5.8306788571445576E-5    5.5030638932001E-5       5.48671335611794E-5      6.305759017136173E-5     7.248205993345748E-5     8.045309751288101E-5     8.561464535231131E-5     8.567835703562382E-5     8.183717280425888E-5     7.977676525360246E-5     9.060694875598653E-5     1.3372310128655432E-4    1.554803635837362E-4     4.7720493739808814E-5    4.5659414010317414E-5    4.9745498683181086E-5    5.854627304098044E-5     6.539506295888301E-5     6.81498141936622E-5      6.678910611572897E-5     6.241352643319287E-5     5.683144730268005E-5     5.6673943561664075E-5    7.28809881462853E-5      1.0651296427845346E-4    1.326299842420889E-4     6.0441335411978485E-5    8.319769506529363E-5     8.809448169962789E-5     1.1618496150645983E-4    1.6476763123234769E-4    2.44905574074208E-4      NaN                      7.835710746212613E-5     1.293586649896194E-4     1.4080105313068797E-4    1.5032236215186797E-4    1.763967338172049E-4     1.920773064349764E-4
40                       1.3259658612282496E-4    1.9154789005244437E-4    2.3065512428702503E-4    2.6837809271412343E-4    3.262003426502117E-4     3.633525210399504E-4     3.7844843942448994E-4    3.80928290763531E-4      3.6566857829768815E-4    3.4444669430374084E-4    3.264595702522045E-4     3.217258638523301E-4     3.2310970592142806E-4    1.1510729457840055E-4    1.036568981107542E-4     9.413528103342962E-5     1.0043776865397257E-4    1.1110953496262687E-4    1.2016170688953025E-4    1.2539054638996197E-4    1.229017302718037E-4     1.1587693748832387E-4    1.1032673461689085E-4    1.2078149695681612E-4    1.7231259057798795E-4    1.9932228278098316E-4    9.722151252695653E-5     8.847776779709562E-5     8.589985834994043E-5     9.307079683145019E-5     1.0095386439724468E-4    1.0454156738738686E-4    1.0259116042378457E-4    9.5968609743236E-5       8.705606941902523E-5     8.430347158329906E-5     1.0145306741430627E-4    1.411295342073381E-4     1.7310913269099744E-4    1.307993073125685E-4     1.4578004809527129E-4    1.4065354688720777E-4    1.668174687337119E-4     2.1855220802153674E-4    3.0616169324887703E-4    NaN                      1.1238473578103708E-4    1.659709514277973E-4     1.756074818650283E-4     1.8530555638200465E-4    2.1838652396249074E-4    2.391078542280295E-4
42                       1.8148535768277053E-4    2.3549368545258096E-4    2.695191327970506E-4     3.0488979771259767E-4    3.624731178749856E-4     3.99345264314343E-4      4.134211620341816E-4     4.1395092618184287E-4    3.958325040428337E-4     3.7199758328608826E-4    3.5288502290597144E-4    3.491465536928038E-4     3.5222838477924476E-4    1.455633976467489E-4     1.297484193791176E-4     1.1542947870438612E-4    1.2089075610689678E-4    1.3232794598700467E-4    1.420230399011986E-4     1.4733316639063942E-4    1.4346144790352227E-4    1.3471462805782637E-4    1.2721942071190949E-4    1.372977749951339E-4     1.930104140481741E-4     2.2275217198378352E-4    1.2422065119504458E-4    1.1185263113269764E-4    1.0581446815078089E-4    1.1222469453646746E-4    1.2074286956120755E-4    1.2483949246331577E-4    1.2260499928879947E-4    1.147752144346939E-4     1.040407316218389E-4     9.982458317287399E-5     1.173189166006594E-4     1.599941309108539E-4     1.9499766750703405E-4    1.6758321955226535E-4    1.7837855686675307E-4    1.6827856004051643E-4    1.9364747162280374E-4    2.471505417745337E-4     3.3864893330971216E-4    NaN                      1.3109637711656555E-4    1.859311962707596E-4     1.944533558619857E-4     2.040368516921101E-4     2.4062816956731418E-4    2.6400009714537743E-4
44                       2.383986347562509E-4     2.865841679684947E-4     3.148572469705784E-4     3.47723045741217E-4      4.0520092722364203E-4    4.418901106748278E-4     4.5484572357998017E-4    4.5310189539713255E-4    4.3156908013961963E-4    4.04575603483979E-4      3.840418972065343E-4     3.8144281968263883E-4    3.8656848742450603E-4    1.819763359622011E-4     1.61005526625519E-4      1.4110813486526642E-4    1.4568619950165322E-4    1.5811169680085587E-4    1.6862101844933544E-4    1.7405934348789566E-4    1.6851968859515722E-4    1.5770091400559504E-4    1.4782839588543248E-4    1.5734051620499065E-4    2.1783138829403826E-4    2.507882896057969E-4     1.5684194374769212E-4    1.4016233918761437E-4    1.3006614977049098E-4    1.3564599587034823E-4    1.449828303921294E-4     1.497354251443229E-4     1.4718695697130195E-4    1.379136935551232E-4     1.2497468972739597E-4    1.1895453048368436E-4    1.367500734729116E-4     1.828477673311542E-4     2.2139080854700666E-4    2.108561481511458E-4     2.167286459185563E-4     2.00971817330748E-4      2.255639839035179E-4     2.8123654908844233E-4    3.773064659954908E-4     NaN                      1.5384543066091644E-4    2.1006821744001358E-4    2.1716249177756807E-4    2.2647157017466156E-4    2.671001272165696E-4     2.936130708606981E-4
46                       3.050800157752824E-4     3.464415502250697E-4     3.681876638268614E-4     3.984137321101235E-4     4.5598073307820636E-4    4.92625932821749E-4      5.043437049608382E-4     4.999216907695554E-4     4.742720847042306E-4     4.434247088865031E-4     4.2108382373541185E-4    4.1979844935952207E-4    4.274025245470454E-4     2.2586612515129538E-4    1.987751387927406E-4     1.723437585034777E-4     1.7600264229072267E-4    1.897072517869432E-4     2.0125278975827832E-4    2.068801535960745E-4     1.9931179840419893E-4    1.859798394900357E-4     1.7318081184302796E-4    1.8187683253559334E-4    2.4786593516425745E-4    2.846385217792645E-4     1.966045654722973E-4     1.747669232341683E-4     1.5986922606118375E-4    1.6453707721735724E-4    1.7493015720773897E-4    1.8053155602090404E-4    1.7763920894542444E-4    1.6662973861078864E-4    1.5100505657520918E-4    1.4274621235235894E-4    1.6077245798112335E-4    2.108012889802914E-4     2.535225668751885E-4     2.6214481830293194E-4    2.622111798023021E-4     2.3999183279783398E-4    2.638583409202205E-4     3.2220609689079027E-4    4.23685203911997E-4      NaN                      1.817368857251728E-4     2.3949055069881129E-4    2.447542057607712E-4     2.535772104652987E-4     2.9889046391632973E-4    3.291584908546812E-4
48                       3.8406851882974056E-4    4.174008791624376E-4     4.3170240976878624E-4    4.591819410082404E-4     5.17113716428973E-4      5.539049236871209E-4     5.642294799493254E-4     5.565957471821226E-4     5.259053729178929E-4     4.902862472853442E-4     4.6562478030318213E-4    4.658770240311438E-4     4.7652033057022427E-4    2.794748913110593E-4     2.4503493755423383E-4    2.1084741083388556E-4    2.135473615199035E-4     2.2891274519585945E-4    2.417839549433731E-4     2.476789982231945E-4     2.376092922421737E-4     2.211920799893644E-4     2.047503172292593E-4     2.122967266885806E-4     2.846866450446387E-4     3.260482206225877E-4     2.458372454288024E-4     2.1772916235360013E-4    1.9704134419630217E-4    2.006705435392671E-4     2.124205328030468E-4     2.191252841855292E-4     2.1585938214127825E-4    2.02743218349855E-4      1.8381606972730813E-4    1.7275519385750624E-4    1.9090988448454185E-4    2.4550765778273015E-4    2.9323736961253156E-4    3.236662614783284E-4     3.168184797380661E-4     2.8714624147102986E-4    3.10375549897033E-4      3.7204203706328446E-4    4.7996790269413605E-4    NaN                      2.1636553404946163E-4    2.757771134982657E-4     2.7867554597631964E-4    2.8673062383515163E-4    3.3755677036957063E-4    3.723738311105933E-4
50                       4.56050242118341E-4      4.8353812931682737E-4    4.926765698227382E-4     5.191216746703892E-4     5.785077420409397E-4     6.16299239101839E-4      6.25828638976394E-4      6.155224536714639E-4     5.798569189547488E-4     5.388830541699257E-4     5.103530916788714E-4     5.100737400357677E-4     5.221615856858727E-4     3.197497146658915E-4     2.805614374037257E-4     2.4124560134059173E-4    2.4493860309163657E-4    2.632451897757596E-4     2.7838991517759916E-4    2.8537780877967156E-4    2.735252097119633E-4     2.54530854910375E-4      2.3471951622179324E-4    2.4069598898571635E-4    3.176280552281511E-4     3.6261392511147697E-4    2.6709183219700587E-4    2.3799891242741821E-4    2.1618490317925606E-4    2.2280038344010106E-4    2.387567340820613E-4     2.484460933500202E-4     2.4623389730674724E-4    2.3226899366336046E-4    2.10904345571894E-4      1.975317751322917E-4     2.1577069479028778E-4    2.742097661707467E-4     3.258886233338526E-4     3.744892990567962E-4     3.627394126574229E-4     3.27614086167745E-4      3.5128800901802553E-4    4.1606938580342483E-4    5.277035691181807E-4     NaN                      2.560261140726603E-4     3.1403274576703586E-4    3.133815220084332E-4     3.193061163339065E-4     3.7327528939937773E-4    4.1140360153103876E-4
50.5                     5.021249016777683E-4     5.239635190900697E-4     5.2798326359769E-4       5.522217727843365E-4     6.11190526097954E-4      6.485039039552257E-4     6.567618530686449E-4     6.44116997229266E-4      6.054070346931842E-4     5.620259768096583E-4     5.332373597274478E-4     5.353342122910735E-4     5.502509523250401E-4     3.6059571866345536E-4    3.1544603787540105E-4    2.700747869583282E-4     2.718252481994635E-4     2.9005821801930643E-4    3.051480521179427E-4     3.1155964504809555E-4    2.975800894552824E-4     2.763503604214869E-4     2.540876754368669E-4     2.5941312155159204E-4    3.407686937415153E-4     3.887981720646429E-4     3.186078544751016E-4     2.818458296179394E-4     2.531706093286852E-4     2.559414823066221E-4     2.7029573597568197E-4    2.790559885623476E-4     2.7545014116877003E-4    2.592185003138065E-4     2.3517990307174655E-4    2.1956914393190144E-4    2.3736082585011712E-4    2.9818552295603884E-4    3.530095187225822E-4     4.1578689155918674E-4    3.988695382451134E-4     3.586926481005251E-4     3.8147040282525304E-4    4.4828141894043207E-4    5.655274597528882E-4     NaN                      2.7139084085023367E-4    3.3253764541489003E-4    3.313415328733271E-4     3.376751048637556E-4     3.96281644995519E-4      4.3775096779813714E-4
51                       5.313962421667701E-4     5.503501371354403E-4     5.518706388491574E-4     5.753779232105878E-4     6.346086165774481E-4     6.720314929523815E-4     6.797156056403445E-4     6.657352503149719E-4     6.249349718922932E-4     5.79553439695735E-4      5.497421275168885E-4     5.523737903176316E-4     5.684058813249423E-4     3.8193995236874715E-4    3.3393508218859566E-4    2.8559282458855985E-4    2.8699155492826984E-4    3.0587599610868506E-4    3.214660998940618E-4     3.279564384997949E-4     3.129303078438033E-4     2.9045237192760223E-4    2.666842279009884E-4     2.714197916114695E-4     3.550148928060111E-4     4.0473362677848686E-4    3.392836251048464E-4     2.998652564423763E-4     2.687308236807059E-4     2.7094245580281735E-4    2.857517848781127E-4     2.9492908620323046E-4    2.911777290463808E-4     2.741139862271602E-4     2.4876151971173834E-4    2.3198160816022932E-4    2.4964589619420766E-4    3.119894497518635E-4     3.6863794720259257E-4    4.392191596234773E-4     4.1968122641343816E-4    3.7684807308051256E-4    3.994880729188721E-4     4.6756271740319125E-4    5.87138423921608E-4      NaN                      2.851661894559247E-4     3.467327492761054E-4     3.4449488941623894E-4    3.503936057210476E-4     4.109960694232894E-4     4.5416699773378403E-4
51.5                     5.618496710210142E-4     5.779067188147541E-4     5.769543428950892E-4     5.997935722965523E-4     6.593271430811689E-4     6.968605911790866E-4     7.039119966543106E-4     6.884799933145222E-4     6.454168414900276E-4     5.978463624997404E-4     5.668600028958784E-4     5.699427269382841E-4     5.870220037425258E-4     4.0392226208918686E-4    3.5303041016804845E-4    3.016813234307976E-4     3.027759544859375E-4     3.223748924768858E-4     3.385060100635344E-4     3.4508265384391263E-4    3.28954541745521E-4      3.051621504812341E-4     2.797924217924933E-4     2.83854323537983E-4      3.696744773870771E-4     4.2108486539659364E-4    3.6006323581874375E-4    3.180605762055326E-4     2.8451207410745043E-4    2.862608435507086E-4     3.0163243193330816E-4    3.1130702529406023E-4    3.074526392752491E-4     2.8955731878157586E-4    2.6284733100410946E-4    2.448294874411311E-4     2.622910123544998E-4     3.2611302646809773E-4    3.845773786220735E-4     4.6339721486440903E-4    4.411931957971729E-4     3.956633597646178E-4     4.1819134882672716E-4    4.875478104094179E-4     6.093907883908486E-4     NaN                      2.998390146009771E-4     3.6165256916091356E-4    3.582368385043233E-4     3.635924905338036E-4     4.261621491931296E-4     4.7102976850351585E-4
52                       5.944556034946553E-4     6.075169403450451E-4     6.040532622812543E-4     6.262660749983344E-4     6.861222433469483E-4     7.237305227541204E-4     7.30017016739465E-4      7.12915317069367E-4      6.672937266632875E-4     6.172372447280391E-4     5.848732588016849E-4     5.88331661728775E-4      6.063855040362702E-4     4.274405805625406E-4     3.7349284335065175E-4    3.1895320559955314E-4    3.197307318685343E-4     3.4009080930695726E-4    3.5678506453458864E-4    3.6343028565132636E-4    3.4608191912741576E-4    3.208517559944996E-4     2.9371799735659654E-4    2.969853462729525E-4     3.85066480992712E-4      4.381977781256408E-4     3.8215395889034775E-4    3.374203215748305E-4     3.012845674841201E-4     3.02533818394029E-4      3.18519992972597E-4      3.28750139009398E-4      3.248101319369753E-4     3.0604501922078286E-4    2.7788793097864773E-4    2.5851398310491815E-4    2.756606367604241E-4     3.409186105915266E-4     4.012199018072589E-4     4.891585954240311E-4     4.6412777371782326E-4    4.1574104418125416E-4    4.3814124461171957E-4    5.08800500322495E-4      6.328741406553102E-4     NaN                      3.157690890882453E-4     3.776294370157744E-4     3.728478463112706E-4     3.7752348200636163E-4    4.4207929620107935E-4    4.886655669885136E-4
52.5                     6.303224563513154E-4     6.402600365433082E-4     6.342486805490518E-4     6.558912074322087E-4     7.160627876525721E-4     7.536415460072432E-4     7.589054789708201E-4     7.397433650946038E-4     6.910623667764294E-4     6.380231738634607E-4     6.039459938350535E-4     6.076311216236019E-4     6.264763773031703E-4     4.532583965928565E-4     3.9598964442079604E-4    3.3796173814882636E-4    3.383669004453657E-4     3.595234701767935E-4     3.767826425712922E-4     3.834412466645921E-4     3.646751541403142E-4     3.378112501547437E-4     3.086588255842482E-4     3.1093388764551487E-4    4.012939657817297E-4     4.5614412414423506E-4    4.0631625183521744E-4    3.5857251251462203E-4    3.1951335701337194E-4    3.2013717600962643E-4    3.367717357799075E-4     3.4762269463476655E-4    3.4361660930063353E-4    3.2392766988705214E-4    2.9419824936884027E-4    2.7328986365448015E-4    2.8992186418406833E-4    3.5649212466415354E-4    4.1861553992214123E-4    5.172583917726405E-4     4.891467307432517E-4     4.376291212102511E-4     4.598343814558655E-4     5.317724608224361E-4     6.579282067931241E-4     NaN                      3.33491229145951E-4      3.950198270352533E-4     3.8856151318933206E-4    3.9232500701701166E-4    4.588495312752723E-4     5.071346220961237E-4
53                       6.721236938888522E-4     6.787771863545131E-4     6.702309871231184E-4     6.914089639477454E-4     7.518116715494892E-4     7.890624560629418E-4     7.927114782050982E-4     7.706374979398987E-4     7.178561484179661E-4     6.608072096506452E-4     6.243111685673305E-4     6.27841564924911E-4      6.46948712791877E-4      4.830498986872012E-4     4.2199656059257383E-4    3.5993397772714664E-4    3.598165243422788E-4     3.817708726901897E-4     3.995418955570236E-4     4.0605340447555035E-4    3.854757238681383E-4     3.566010592937042E-4     3.24941085735937E-4      3.258199466172976E-4     4.1838064441293023E-4    4.748227211523437E-4     4.340355408948651E-4     3.827377041856478E-4     3.4006129281981815E-4    3.3973921257052735E-4    3.5702504366516655E-4    3.68588999491351E-4      3.645561138489757E-4     3.4386642423881006E-4    3.123640477302787E-4     2.895958762975517E-4     3.0526762108630073E-4    3.7276861399800087E-4    4.365571828130991E-4     5.493863685049722E-4     5.177332623237655E-4     4.625396619064666E-4     4.843470187945182E-4     5.573913044704954E-4     6.851153984161102E-4     NaN                      3.543184283618377E-4     4.146135160903052E-4     4.0583241525530216E-4    4.0818128137777885E-4    4.765049416473486E-4     5.263125176795347E-4
53.5                     7.305102850720243E-4     7.336489186075084E-4     7.227903209383876E-4     7.438098400071853E-4     8.040201678986388E-4     8.398454485412977E-4     8.398761081441118E-4     8.121596778633961E-4     7.520223312558538E-4     6.877598609566003E-4     6.466120667549703E-4     6.485948054691524E-4     6.659488429284663E-4     5.233279782637838E-4     4.5724373143352933E-4    3.896175053028169E-4     3.884291085562892E-4     4.1103516856270657E-4    4.2900497836742817E-4    4.3479774657948156E-4    4.112010757232876E-4     3.7921433654863234E-4    3.436238282023982E-4     3.418395977336177E-4     4.360637378038422E-4     4.934085942608169E-4     4.7092679721408347E-4    4.14500146049314E-4      3.660777470578855E-4     3.636986365569279E-4     3.815102021375458E-4     3.939987680521267E-4     3.9005790134427387E-4    3.682151683087749E-4     3.3446286642118734E-4    3.089153023854112E-4     3.2215459713811267E-4    3.8908527472978526E-4    4.537353122537414E-4     5.921264584962407E-4     5.556573063884501E-4     4.951360275495831E-4     5.157518875607675E-4     5.890848920755289E-4     7.162633244205759E-4     NaN                      3.834580035510216E-4     4.394200029308143E-4     4.2628747980232875E-4    4.2558838454693267E-4    4.94826678025941E-4      5.452703044025668E-4
54                       9.729102524782516E-4     9.702843189524247E-4     9.597083037698861E-4     9.83072364076425E-4      0.0010369532003461535    0.0010575336105147213    0.0010301236256204098    9.649466989305015E-4     8.6010977902579E-4       7.51735007830523E-4      6.792162160134613E-4     6.609936071170935E-4     6.494977221952306E-4     6.762519833693467E-4     5.91150566501973E-4      5.000606725646819E-4     4.905673117590094E-4     5.111468645836528E-4     5.250127071763055E-4     5.230748627778538E-4     4.829716094075444E-4     4.35752926773828E-4      3.804355960578187E-4     3.6073166743587007E-4    4.4690995879639574E-4    4.944076813189931E-4     6.04580800033015E-4      5.246906029681403E-4     4.453356166926891E-4     4.274400450954159E-4     4.437453845412329E-4     4.591719909308759E-4     4.5667945893205223E-4    4.3237588386124643E-4    3.9164706308716625E-4    3.532714383078739E-4     3.46047235912618E-4      3.916544590520036E-4     4.4489407668127465E-4    7.482782203855348E-4     6.924561298029173E-4     6.06978263073227E-4      6.161912879274092E-4     6.789824493045791E-4     7.791349926281784E-4     NaN                      5.003829918566302E-4     5.152392020181717E-4     4.745002928465717E-4     4.509626573040065E-4     5.071348917315641E-4     5.448243005319834E-4
54.5                     6.549305588605989E-4     6.508931630155853E-4     6.298389596549688E-4     6.460188127791199E-4     7.123311937166445E-4     7.608081932981463E-4     7.804130715852665E-4     7.771483182346192E-4     7.440193866902607E-4     7.061425677897086E-4     6.839408756803398E-4     7.013247501621087E-4     7.429832010549497E-4     4.891528107208995E-4     4.262993978285669E-4     3.642410832443927E-4     3.68016718389237E-4      3.95050091297109E-4      4.185891669275134E-4     4.311763869229066E-4     4.1682803593307276E-4    3.921974928719655E-4     3.661289673762246E-4     3.746408769722881E-4     4.8025928858071436E-4    5.500701223717464E-4     4.4681033068474447E-4    3.981835166008972E-4     3.640947223918705E-4     3.724909443500248E-4     3.941561248753093E-4     4.0653650557439033E-4    4.0120453851259704E-4    3.78214616037814E-4      3.4482390888783946E-4    3.245695459934709E-4     3.519736904160853E-4     4.384604254048449E-4     5.170469238559482E-4     5.605798500226736E-4     5.28709752857923E-4      4.774614935778172E-4     5.069460160782964E-4     5.93907868616754E-4      7.517366636179369E-4     NaN                      3.467580387802179E-4     4.368258033115367E-4     4.411509206885024E-4     4.553625969517782E-4     5.395466706927344E-4     6.046660621993014E-4
55                       7.479603689227967E-4     7.402204817045323E-4     7.177468924061554E-4     7.348928734041053E-4     8.003832764970053E-4     8.45276185163373E-4      8.571183060365555E-4     8.424444508742745E-4     7.950540109684354E-4     7.432630768299119E-4     7.120259249972498E-4     7.255592488108529E-4     7.620131255207457E-4     5.517882127906935E-4     4.815067606510369E-4     4.111275036613616E-4     4.1296650082278934E-4    4.405022753602238E-4     4.636755096622672E-4     4.743474712924288E-4     4.543446842989165E-4     4.241781952057399E-4     3.911074196405038E-4     3.94532702268623E-4      5.014596567724644E-4     5.712673351936885E-4     5.036124748804648E-4     4.4686760499071577E-4    4.029312650450849E-4     4.070569104931541E-4     4.290331599668421E-4     4.428234990354115E-4     4.3784901916223964E-4    4.133356145086735E-4     3.7658682137436397E-4    3.5156028225055203E-4    3.7371656683997693E-4    4.572201156333632E-4     5.355607740746155E-4     6.262189160430553E-4     5.870700029580799E-4     5.273920036704042E-4     5.54246819186441E-4      6.399342794916562E-4     7.93018000568112E-4      NaN                      3.945980225754897E-4     4.73730496308984E-4      4.6941059800704847E-4    4.7742565751509886E-4    5.615212984903438E-4     6.260460466614104E-4
55.5                     8.041890653094368E-4     7.923776373467727E-4     7.670199636202769E-4     7.840151525902849E-4     8.499677671606764E-4     8.944286985585523E-4     9.039217802780111E-4     8.850352013122679E-4     8.31728529788519E-4      7.741360652170811E-4     7.393673627319361E-4     7.525816707461767E-4     7.892704588538281E-4     5.929586780308514E-4     5.176123039726224E-4     4.4183796951100077E-4    4.4305507496790724E-4    4.717598940846439E-4     4.956612921661026E-4     5.061351380087703E-4     4.835536957291565E-4     4.505642767855884E-4     4.1392451183076666E-4    4.152443448319146E-4     5.248965515354022E-4     5.967813458084403E-4     5.422258068948832E-4     4.8067781099505127E-4    4.3179389110047805E-4    4.346217693598476E-4     4.575408917864539E-4     4.7239485125213687E-4    4.674555484100669E-4     4.4160890385866317E-4    4.024151524929208E-4     3.747317620525131E-4     3.9535059071379015E-4    4.798555205688121E-4     5.603371171435233E-4     6.697158967063901E-4     6.258950417328846E-4     5.615650836709982E-4     5.880545184689017E-4     6.752265075191438E-4     8.301990830786223E-4     NaN                      4.2385521576588254E-4    5.008912474290356E-4     4.931814705831067E-4     4.991131882254744E-4     5.856008986803833E-4     6.52153920420888E-4
56                       8.549251150958058E-4     8.388281790959441E-4     8.102287934897664E-4     8.269155289432522E-4     8.936747057459352E-4     9.38389652838309E-4      9.466052279566047E-4     9.248551334096473E-4     8.671426093999686E-4     8.052162761585984E-4     7.679413859482815E-4     7.816194896382284E-4     8.197808905844774E-4     6.315421588865281E-4     5.514253159664479E-4     4.7066192786723485E-4    4.7154280619952346E-4    5.016447254462567E-4     5.265717224566014E-4     5.372195114828666E-4     5.126019210753443E-4     4.7723738599637303E-4    4.3758726309848345E-4    4.373371579624284E-4     5.501449682746285E-4     6.246815226612245E-4     5.789154421655111E-4     5.130803209934683E-4     4.601043010657477E-4     4.622367750601945E-4     4.8629882521495596E-4    5.022068436495773E-4     4.972457331393546E-4     4.7004288696979584E-4    4.28472920660656E-4      3.9845035594622606E-4    4.1825816349331315E-4    5.046911254141326E-4     5.879585518866597E-4     7.104539044946466E-4     6.623438553032577E-4     5.940568654039944E-4     6.207177752893098E-4     7.100795604736335E-4     8.685267089102837E-4     NaN                      4.505805618684487E-4     5.273480724181374E-4     5.172260415899858E-4     5.218855340685373E-4     6.114826431900274E-4     6.80774970487982E-4