% Model:              biconAndDipole_fullFeature_addCablesV1_1.1.22.mph
% Version:            COMSOL 5.6.0.401
% Date:               Jan 2 2022, 12:51
% Table:              Table 7 - Ex complex
% freq (MHz)                                      (emw.Ex) (V/m), Point: (-0.6, 0, 0.4)             (emw.Ex) (V/m), Point: (-0.5, 0, 0.4)             (emw.Ex) (V/m), Point: (-0.4, 0, 0.4)             (emw.Ex) (V/m), Point: (-0.3, 0, 0.4)             (emw.Ex) (V/m), Point: (-0.2, 0, 0.4)             (emw.Ex) (V/m), Point: (-0.1, 0, 0.4)             (emw.Ex) (V/m), Point: (-1.1102E-16, 0, 0.4)      (emw.Ex) (V/m), Point: (0.1, 0, 0.4)              (emw.Ex) (V/m), Point: (0.2, 0, 0.4)              (emw.Ex) (V/m), Point: (0.3, 0, 0.4)              (emw.Ex) (V/m), Point: (0.4, 0, 0.4)              (emw.Ex) (V/m), Point: (0.5, 0, 0.4)              (emw.Ex) (V/m), Point: (0.6, 0, 0.4)              (emw.Ex) (V/m), Point: (-0.6, 0.4, 2.4493E-17)    (emw.Ex) (V/m), Point: (-0.5, 0.4, 2.4493E-17)    (emw.Ex) (V/m), Point: (-0.4, 0.4, 2.4493E-17)    (emw.Ex) (V/m), Point: (-0.3, 0.4, 2.4493E-17)    (emw.Ex) (V/m), Point: (-0.2, 0.4, 2.4493E-17)    (emw.Ex) (V/m), Point: (-0.1, 0.4, 2.4493E-17)    (emw.Ex) (V/m), Point: (-1.1102E-16, 0.4, 2.4493E-17)(emw.Ex) (V/m), Point: (0.1, 0.4, 2.4493E-17)     (emw.Ex) (V/m), Point: (0.2, 0.4, 2.4493E-17)     (emw.Ex) (V/m), Point: (0.3, 0.4, 2.4493E-17)     (emw.Ex) (V/m), Point: (0.4, 0.4, 2.4493E-17)     (emw.Ex) (V/m), Point: (0.5, 0.4, 2.4493E-17)     (emw.Ex) (V/m), Point: (0.6, 0.4, 2.4493E-17)     (emw.Ex) (V/m), Point: (-0.6, 4.8986E-17, -0.4)   (emw.Ex) (V/m), Point: (-0.5, 4.8986E-17, -0.4)   (emw.Ex) (V/m), Point: (-0.4, 4.8986E-17, -0.4)   (emw.Ex) (V/m), Point: (-0.3, 4.8986E-17, -0.4)   (emw.Ex) (V/m), Point: (-0.2, 4.8986E-17, -0.4)   (emw.Ex) (V/m), Point: (-0.1, 4.8986E-17, -0.4)   (emw.Ex) (V/m), Point: (-1.1102E-16, 4.8986E-17, -0.4)(emw.Ex) (V/m), Point: (0.1, 4.8986E-17, -0.4)    (emw.Ex) (V/m), Point: (0.2, 4.8986E-17, -0.4)    (emw.Ex) (V/m), Point: (0.3, 4.8986E-17, -0.4)    (emw.Ex) (V/m), Point: (0.4, 4.8986E-17, -0.4)    (emw.Ex) (V/m), Point: (0.5, 4.8986E-17, -0.4)    (emw.Ex) (V/m), Point: (0.6, 4.8986E-17, -0.4)    (emw.Ex) (V/m), Point: (-0.6, -0.4, -7.3479E-17)  (emw.Ex) (V/m), Point: (-0.5, -0.4, -7.3479E-17)  (emw.Ex) (V/m), Point: (-0.4, -0.4, -7.3479E-17)  (emw.Ex) (V/m), Point: (-0.3, -0.4, -7.3479E-17)  (emw.Ex) (V/m), Point: (-0.2, -0.4, -7.3479E-17)  (emw.Ex) (V/m), Point: (-0.1, -0.4, -7.3479E-17)  (emw.Ex) (V/m), Point: (-1.1102E-16, -0.4, -7.3479E-17)(emw.Ex) (V/m), Point: (0.1, -0.4, -7.3479E-17)   (emw.Ex) (V/m), Point: (0.2, -0.4, -7.3479E-17)   (emw.Ex) (V/m), Point: (0.3, -0.4, -7.3479E-17)   (emw.Ex) (V/m), Point: (0.4, -0.4, -7.3479E-17)   (emw.Ex) (V/m), Point: (0.5, -0.4, -7.3479E-17)   (emw.Ex) (V/m), Point: (0.6, -0.4, -7.3479E-17)
30                                                3.4575637183424554E-5+1.1214121459263384E-5i      -4.3966420212284564E-5+5.416998691297561E-6i      -1.0123093350300358E-4-3.735653997138021E-6i      -1.4786143579134523E-4-1.2346397795259635E-5i     -2.0747808308344568E-4-1.6922698308093606E-5i     -2.4644688741585265E-4-1.9947953262827026E-5i     -2.654368852728983E-4-2.066150006143652E-5i       -2.7450687600772875E-4-1.9706212432078646E-5i     -2.684209298798557E-4-1.612883074517082E-5i       -2.5539807237914537E-4-1.0783632198258006E-5i     -2.40650439829766E-4-2.3656638679600606E-6i       -2.3235941672711583E-4+7.408064657656845E-6i      -2.2818365486278219E-4+1.4489554740849378E-5i     -1.645264609093751E-5+1.3879568170017823E-5i      -2.168435198723752E-5+6.877561158693099E-6i       -2.8447241596499504E-5-6.2568261500890225E-6i     -3.592655200815793E-5-1.4809162237223948E-5i      -4.338899506347699E-5-1.9590218132087277E-5i      -5.024338354233925E-5-2.2312456724490414E-5i      -5.52408722920473E-5-2.389851209653331E-5i        -5.8014668098684276E-5-2.169121494220764E-5i      -5.698560633387834E-5-1.938075371820262E-5i       -5.85787668852839E-5-1.4325308888746425E-5i       -7.076777784953478E-5-6.059468163866708E-6i       -1.0757363491584548E-4+8.437044744233813E-6i      -1.251086046970338E-4+1.4902120657186896E-5i      -1.177081149026194E-5+1.1860638960829108E-5i      -1.70527428858947E-5+5.476992690094392E-6i        -2.6153799693783207E-5-4.58819318392446E-6i       -3.415385893210584E-5-1.3226925585351443E-5i      -3.8569610967077646E-5-1.8831490964520127E-5i     -3.9432594271030603E-5-2.215372123374185E-5i      -3.784809230193222E-5-2.3045194307601513E-5i      -3.515219475805721E-5-2.1910564715725237E-5i      -3.308398802920589E-5-1.8673475278572333E-5i      -3.717128155747847E-5-1.317666623723574E-5i       -5.451120270887163E-5-4.646058219590031E-6i       -8.365168073585656E-5+5.748526520291847E-6i       -1.050739328738198E-4+1.259933332177647E-5i       -8.028918881793463E-6+1.2876454904629684E-5i      -3.909892971578304E-5+7.164177962369375E-6i       -5.1660248245410336E-5-5.926845055112948E-6i      -8.056731862893391E-5-1.403362786217915E-5i       -1.2711895494401564E-4-1.8179123384211678E-5i     -2.0230942593417496E-4-2.0463173920479947E-5i     NaN                                               -5.2014433636528446E-5-2.2077206671222984E-5i     -1.038846952928051E-4-1.8600961916480003E-5i      -1.171044967124355E-4-1.3452723832659754E-5i      -1.267570658197256E-4-5.195124114866517E-6i       -1.4755799278537586E-4+8.315539120773654E-6i      -1.592745970808531E-4+1.525098679462826E-5i
35                                                -3.330827249004557E-5+1.955178361905366E-5i       -1.050663475456018E-4+1.0263672150112088E-5i      -1.549214580875886E-4-4.003574106856949E-6i       -1.971192009582937E-4-1.7198937565774092E-5i      -2.554625683642429E-4-2.416927923666224E-5i       -2.932770796840667E-4-2.8719773435221353E-5i      -3.1052244338828386E-4-2.982079814954036E-5i      -3.1695222286804624E-4-2.8511124595554745E-5i     -3.07445534792125E-4-2.332739834181151E-5i        -2.915027227060309E-4-1.5414262637599228E-5i      -2.7582365721023384E-4-2.678993974161058E-6i      -2.6883009389370614E-4+1.2272505788617173E-5i     -2.66344823974265E-4+2.3179691172674117E-5i       -5.3570886162259055E-5+2.301829162439164E-5i      -5.36644810867441E-5+1.2185839772241759E-5i       -5.428317783704264E-5-7.9836676491636E-6i         -5.948530702678191E-5-2.092266536913754E-5i       -6.686540507856224E-5-2.7976179436747685E-5i      -7.384583405668473E-5-3.192951130051513E-5i       -7.84698003199856E-5-3.42397128572018E-5i         -7.985138158371664E-5-3.105700763910632E-5i       -7.699165868047778E-5-2.7741797818867846E-5i      -7.714212835538196E-5-2.0332838147444296E-5i      -9.025953901210104E-5-7.92683923092791E-6i        -1.3297161709770083E-4+1.4156866324031736E-5i     -1.5360794526612405E-4+2.405706988081132E-5i      -4.3369236486214737E-5+1.990866267165911E-5i      -4.454098597319172E-5+1.0044035857239294E-5i      -4.9451802680855686E-5-5.397578239552009E-6i      -5.555788154147831E-5-1.8465857294263296E-5i      -5.966018307737979E-5-2.6780157105024595E-5i      -6.036751754406735E-5-3.162530632574808E-5i       -5.812249735710547E-5-3.290227950631038E-5i       -5.4016381142066814E-5-3.1267856500595515E-5i     -5.02351057962219E-5-2.657531840184972E-5i        -5.3580608514431124E-5-1.846765469825434E-5i      -7.266101039941977E-5-5.658268367123563E-6i       -1.0603066594853774E-4+1.0124694459226956E-5i     -1.310197632041184E-4+2.0604231846722333E-5i      -5.6433084294736996E-5+2.1643983537380384E-5i     -8.222441573072321E-5+1.268865327443314E-5i       -8.778095697659392E-5-7.425718699185853E-6i       -1.1449069697657675E-4-1.976930919570106E-5i      -1.627054152950449E-4-2.5986922395425866E-5i      -2.4312757997297852E-4-2.945708860529717E-5i      NaN                                               -7.169915217172251E-5-3.160803485962646E-5i       -1.2657428674780937E-4-2.6694833623379475E-5i     -1.3948999915619118E-4-1.916968174270502E-5i      -1.5017004920434032E-4-6.765270495949096E-6i      -1.7585255616826934E-4+1.384507820358948E-5i      -1.9051085190678724E-4+2.4480746579016036E-5i
40                                                -1.2807244719931487E-4+3.4340980181212725E-5i     -1.9056059424626693E-4+1.942303024898387E-5i      -2.3063652029485643E-4-2.929482231255916E-6i      -2.6737303637015613E-4-2.3204742426361657E-5i     -3.2444889004401323E-4-3.375768496688345E-5i      -3.6108459118358366E-4-4.053359786488046E-5i      -3.760892141625721E-4-4.219151921193222E-5i       -3.787786055487242E-4-4.041201161275219E-5i       -3.641818353881123E-4-3.294085499191489E-5i       -3.4379203497321E-4-2.1226443549352442E-5i        -3.2645434292839104E-4-1.847428603894178E-6i      -3.210246559169298E-4+2.1229737750260533E-5i      -3.2084199562851896E-4+3.8213818204167066E-5i     -1.0831859939594068E-4+3.8945735197328114E-5i     -1.0129074042091202E-4+2.202131764737746E-5i      -9.368200949925276E-5-9.226712926318332E-6i       -9.618964261670976E-5-2.890152289168457E-5i       -1.0393513235088759E-4-3.927870953601562E-5i      -1.1143069112193366E-4-4.496706437709265E-5i      -1.1571562686133933E-4-4.8297855273919675E-5i     -1.148573782132394E-4-4.37334880130097E-5i        -1.0910984387870193E-4-3.901931073761052E-5i      -1.0666699004407724E-4-2.8180518202520514E-5i     -1.2041076286061014E-4-9.456119418413237E-6i      -1.705581839607033E-4+2.4526205489724644E-5i      -1.9529428511119777E-4+3.9868717259631156E-5i     -9.101991664324346E-5+3.416719585049638E-5i       -8.646366603429448E-5+1.87709842647306E-5i        -8.574701008053624E-5-5.122101794014494E-6i       -8.965174688275486E-5-2.4994749522880473E-5i      -9.379908036451839E-5-3.732847786218838E-5i       -9.466541219432699E-5-4.435537223256856E-5i       -9.162003324722054E-5-4.615967617820674E-5i       -8.537882940572682E-5-4.38227058196699E-5i        -7.877343836502619E-5-3.706082339670233E-5i       -8.048044876296409E-5-2.5099256720230257E-5i      -1.0129019105593256E-4-5.746484457861996E-6i      -1.399187213993771E-4+1.844713602551098E-5i       -1.6960218449758974E-4+3.466800880747114E-5i      -1.2546065255738235E-4+3.698761216033717E-5i      -1.4397923838040284E-4+2.2842971305387197E-5i     -1.4040763798744862E-4-8.313570035642112E-6i      -1.6458775654961145E-4-2.7183419002928552E-5i     -2.1549057935384995E-4-3.645377677046865E-5i      -3.0331698347080385E-4-4.163880343131379E-5i      NaN                                               -1.0319387856289896E-4-4.451238326262904E-5i      -1.6165496564674638E-4-3.760357429284473E-5i      -1.7357849092861847E-4-2.6617572652662305E-5i     -1.851380528564438E-4-7.877220992769382E-6i       -2.1707825044408252E-4+2.3868536456090635E-5i     -2.3567604352279142E-4+4.036543648935226E-5i
42                                                -1.762550866340265E-4+4.32559763370909E-5i        -2.3414397186905097E-4+2.5176900631813432E-5i     -2.69514048473388E-4-1.6554815488150956E-6i       -3.0379770579819134E-4-2.5782604619865545E-5i     -3.6045147109959154E-4-3.822954569640492E-5i      -3.966689423949277E-4-4.615615093984728E-5i       -4.1061400545807253E-4-4.8095693563675986E-5i     -4.113769670992927E-4-4.609078245151596E-5i       -3.94056480347965E-4-3.745479345282566E-5i        -3.7123935241482664E-4-2.3739106750472097E-5i     -3.5288422995109514E-4-7.480930226995221E-7i      -3.4811510611270036E-4+2.6817696614461052E-5i     -3.4905271386675264E-4+4.7191503328995774E-5i     -1.3726062414988832E-4+4.845847492904244E-5i      -1.2666133926694602E-4+2.8134631088446416E-5i     -1.1505848521119908E-4-9.247136576833513E-6i      -1.1641872168481133E-4-3.257692670237086E-5i      -1.2455494915059788E-4-4.46850079023334E-5i       -1.324550918044943E-4-5.12463902908335E-5i        -1.3664568465437266E-4-5.509100456544234E-5i      -1.3453114721035002E-4-4.98252693403876E-5i       -1.2718280258050698E-4-4.441357608351622E-5i      -1.2318300970323183E-4-3.179193493210681E-5i      -1.369580709290943E-4-9.652244609187423E-6i       -1.905202316009123E-4+3.090406578077306E-5i       -2.1723271006159013E-4+4.927960838714309E-5i      -1.1662018965643504E-4+4.278436101916277E-5i      -1.0918047228680398E-4+2.4302994929385784E-5i     -1.0572855681717641E-4-4.263090825882712E-6i      -1.0871934193417343E-4-2.7829602102863587E-5i     -1.130972345491963E-4-4.228304727900839E-5i       -1.1420202982984175E-4-5.0426136687656414E-5i     -1.1080143907364493E-4-5.248835061054853E-5i      -1.0340953010101094E-4-4.9797780400516654E-5i     -9.519360677419962E-5-4.198393818743743E-5i       -9.581829882800067E-5-2.7996446477115683E-5i      -1.1720800393333659E-4-5.100196693798534E-6i      -1.5822542258195398E-4+2.3724198083002605E-5i     -1.901654561294579E-4+4.314150702350388E-5i       -1.6109783002732654E-4+4.6169520638505444E-5i     -1.7598557422042615E-4+2.9120220057072708E-5i     -1.680815385544556E-4-8.140649020609242E-6i       -1.9122131757102283E-4-3.0557339090742544E-5i     -2.4365466194552142E-4-4.142216811876457E-5i      -3.353035998300375E-4-4.7482585995541314E-5i      NaN                                               -1.2088871764535452E-4-5.071664459672509E-5i      -1.8093574520712042E-4-4.280964672850883E-5i      -1.9212134791668376E-4-3.0024911001776558E-5i     -2.038855149878207E-4-7.857074937867492E-6i       -2.3874570250694032E-4+3.004006530924425E-5i      -2.592601810823123E-4+4.9801704769368604E-5i
44                                                -2.3202571301189919E-4+5.475379032509174E-5i      -2.847024248762054E-4+3.278741526566253E-5i       -3.148568622828024E-4+4.921822022294542E-7i       -3.465716747642735E-4-2.8273499794597773E-5i      -4.0291790371599996E-4-4.295293107581172E-5i      -4.3879447147104417E-4-5.2213807739510596E-5i     -4.515720875289894E-4-5.4472764054217826E-5i      -4.500826043409505E-4-5.222046420840595E-5i       -4.294963043110647E-4-4.2246840304272835E-5i      -4.037279447243389E-4-2.6175667767737033E-5i      -3.840401277204044E-4+1.1658089421966958E-6i      -3.7990667511545606E-4+3.4198580236048526E-5i     -3.8208123887841026E-4+5.872922923731988E-5i      -1.7156707392980267E-4+6.0664042013317156E-5i     -1.5688997952765997E-4+3.6170622441024464E-5i     -1.408401622355993E-4-8.692204933403644E-6i       -1.410608991636065E-4-3.641828458879328E-5i       -1.4981413523975262E-4-5.0547339668976535E-5i     -1.582950311152101E-4-5.8101041187966617E-5i      -1.6243951833177662E-4-6.253045609603091E-5i      -1.5878009194655852E-4-5.6460320984308846E-5i     -1.4947715648142414E-4-5.026089900138996E-5i      -1.4348776163836406E-4-3.5559765045232924E-5i     -1.570641644998757E-4-9.321280470456506E-6i       -2.1426709480888993E-4+3.924443665369968E-5i      -2.4317127572276413E-4+6.133919519169198E-5i      -1.4727986281596085E-4+5.392622114951102E-5i      -1.3653932269349609E-4+3.166219646432018E-5i      -1.3004018494009644E-4-2.59877218418726E-6i       -1.3214704861019816E-4-3.061035346533023E-5i      -1.3695941142775864E-4-4.756196726245553E-5i      -1.3846553601647922E-4-5.6991164918961066E-5i     -1.3469504840231392E-4-5.9340072787031574E-5i     -1.2592239660108898E-4-5.6247105741135546E-5i     -1.1570786321875258E-4-4.722672402156787E-5i      -1.1488287964016006E-4-3.085618719443945E-5i      -1.3669996138495014E-4-3.7017768976351157E-6i     -1.8024320373810282E-4+3.075213040120406E-5i      -2.146824584256944E-4+5.408633980403317E-5i       -2.0273302187577674E-4+5.796237619571662E-5i      -2.1348690228310284E-4+3.734499317520143E-5i      -2.0083724423431494E-4-7.353413465164747E-6i      -2.2298081871623756E-4-3.403917330169593E-5i      -2.7732077983135033E-4-4.676731355238998E-5i      -3.734466702215861E-4-5.38307884246213E-5i        NaN                                               -1.4270501824752821E-4-5.747777224471632E-5i      -2.0440752919969146E-4-4.8437774359502854E-5i     -2.1455448741448523E-4-3.3554727913511894E-5i     -2.2635479549368482E-4-7.271771062731451E-6i      -2.643661134384982E-4+3.811870963884743E-5i       -2.870179529385592E-4+6.188158103352174E-5i
46                                                -2.969981174199737E-4+6.975624899919786E-5i       -3.437660401755618E-4+4.2972751184483006E-5i      -3.68166271014718E-4+3.9689647767515035E-6i       -3.972511960586163E-4-3.0413634506847588E-5i      -4.53475896251299E-4-4.772882208497891E-5i        -4.891360302731508E-4-5.85342086059228E-5i        -5.006224767423907E-4-6.115315620586892E-5i       -4.964713920076922E-4-5.863321430584704E-5i       -4.7192476135702417E-4-4.712780440263094E-5i      -4.425221429547839E-4-2.8277649226656715E-5i      -4.210615077348682E-4+4.335125796901445E-6i       -4.174782209616167E-4+4.407576553371166E-5i       -4.2099219138012477E-4+7.374613743205916E-5i      -2.1251364801627918E-4+7.650788127816393E-5i      -1.931731050649644E-4+4.685837472249243E-5i       -1.7219340700117875E-4-7.197338426908402E-6i      -1.7134038530311978E-4-4.0241799878913616E-5i     -1.8102559376115783E-4-5.6732493193714904E-5i     -1.9032718090880894E-4-6.540832968969087E-5i      -1.9449729344163145E-4-7.049965103328732E-5i      -1.8892260717094864E-4-6.350938106175705E-5i      -1.772133305928951E-4-5.642637820126953E-5i       -1.6866337685159818E-4-3.929705968168651E-5i      -1.81695827106568E-4-8.112251551845209E-6i        -2.4271138675153905E-4+5.028622630499042E-5i      -2.7403116977639535E-4+7.69805564520369E-5i       -1.842823942946591E-4+6.850806023803795E-5i       -1.6975172996677707E-4+4.156714604136385E-5i      -1.598689179670466E-4+3.1386214744506805E-7i      -1.6117781661765818E-4-3.307810770880229E-5i      -1.6671360287522273E-4-5.29823981817244E-5i       -1.6884785437862977E-4-6.389088190862486E-5i      -1.6470028580780214E-4-6.655452208215793E-5i      -1.5425878201234496E-4-6.300553913401252E-5i      -1.415459175049607E-4-5.260494605035714E-5i       -1.3877795605123327E-4-3.34239443391518E-5i       -1.6076854378146163E-4-1.121862594228083E-6i      -2.0692747232196995E-4+4.022691430115764E-5i      -2.4412058476087851E-4+6.840198835553803E-5i      -2.516925799316628E-4+7.328540762266891E-5i       -2.577338431907987E-4+4.8249029911657276E-5i      -2.3992701845015668E-4-5.577241906325428E-6i      -2.6118988895669677E-4-3.7430815913625636E-5i     -3.179269854975436E-4-5.233737446645575E-5i       -4.193370528803322E-4-6.054410041934712E-5i       NaN                                               -1.6984290674945164E-4-6.466593121560688E-5i      -2.3324297931467223E-4-5.4345528559719426E-5i     -2.419395265455999E-4-3.701198093154253E-5i       -2.5351178081709305E-4-5.760091519111624E-6i      -2.948752528082202E-4+4.882719223349873E-5i       -3.1989634404672044E-4+7.753477392288908E-5i
48                                                -3.7345697115929516E-4+8.965778186301605E-5i      -4.1351345838233167E-4+5.683408891026117E-5i      -4.315978338168636E-4+9.501602221097835E-6i       -4.580833203351705E-4-3.17447094615891E-5i        -5.144737838604245E-4-5.218545237249125E-5i       -5.501039459875292E-4-6.47789556398116E-5i        -5.601411205014949E-4-6.779993486144393E-5i       -5.527876894692472E-4-6.499689340635026E-5i       -5.23353913983139E-4-5.17411053461081E-5i         -4.89392127542572E-4-2.95964487143385E-5i         -4.655285875223269E-4+9.46415510512444E-6i        -4.6231145404077424E-4+5.752843629736539E-5i      -4.6723069149412835E-4+9.363282743073852E-5i      -2.619470176547167E-4+9.741650175985551E-5i       -2.3724055107951508E-4+6.131102303579079E-5i      -2.1080617675060557E-4-4.169712117851856E-6i      -2.090264610614807E-4-4.37082851210804E-5i        -2.200821598651169E-4-6.296735521053431E-5i       -2.3053072632290823E-4-7.290449292801825E-5i      -2.3482908977747832E-4-7.874125192760276E-5i      -2.2684742151045817E-4-7.069952697071756E-5i      -2.12139167996302E-4-6.263313541455626E-5i        -2.002569889735951E-4-4.265947459488598E-5i       -2.1222675626686495E-4-5.450145606366149E-6i      -2.7712981558631234E-4+6.515789422524812E-5i      -3.1109297639913766E-4+9.761455939705513E-5i      -2.2957442754450034E-4+8.792913884279877E-5i      -2.1063386103480102E-4+5.513043374373626E-5i      -1.9697294224606309E-4+5.191468541243728E-6i      -1.976342015938842E-4-3.4776276463888926E-5i      -2.042948242806843E-4-5.819027004967929E-5i       -2.073725076339435E-4-7.079924609061155E-5i       -2.0285093422678195E-4-7.380224482856994E-5i      -1.90371778743326E-4-6.973807026982544E-5i        -1.7450522153638698E-4-5.7760498149956285E-5i     -1.6912153600843192E-4-3.524575240923685E-5i      -1.9088064855518665E-4+3.340958103963095E-6i      -2.39666899487871E-4+5.323332903203492E-5i        -2.7988703615079876E-4+8.7472292367343E-5i        -3.0985970811361E-4+9.352438242034047E-5i         -3.105021960143826E-4+6.294708391804425E-5i       -2.8713775875864427E-4-2.207144309194451E-6i      -3.0773826021728864E-4-4.0375056313545704E-5i     -3.6751916154133984E-4-5.78354842821333E-5i       -4.7522039297180407E-4-6.734066914080782E-5i      NaN                                               -2.0403300894339407E-4-7.200399701414928E-5i      -2.6911621523204303E-4-6.024515771923919E-5i      -2.7578391583557457E-4-4.0041125004132545E-5i     -2.867175860939308E-4-2.7343133259751215E-6i      -3.315745207457047E-4+6.326855786716882E-5i       -3.5920201781585267E-4+9.81640488824728E-5i
50                                                -4.411577452375784E-4+1.1559267776590908E-4i      -4.774859299383002E-4+7.626473112896636E-5i       -4.922519992755321E-4+2.044924598954676E-5i       -5.183980328967994E-4-2.7400594908107774E-5i      -5.762878810291728E-4-5.063087773495943E-5i       -6.128853254418554E-4-6.477908594242914E-5i       -6.22093827156929E-4-6.82697266457875E-5i         -6.120193790452081E-4-6.557568640019955E-5i       -5.775864872869518E-4-5.126300969718741E-5i       -5.382315962224911E-4-2.6489524331259058E-5i      -5.100152437483859E-4+1.8566888012183153E-5i      -5.04557990811795E-4+7.480945249124969E-5i        -5.087964629744364E-4+1.173834776733417E-4i       -2.9438408038549716E-4+1.2481143074456028E-4i     -2.6843081709793673E-4+8.160647394771272E-5i      -2.4120582432345995E-4+4.380693851878197E-6i      -2.4139252484538392E-4-4.1527921128476883E-5i     -2.555324647810906E-4-6.325495540253249E-5i       -2.6830621689432515E-4-7.424768581205882E-5i      -2.7370184580797227E-4-8.079476062960867E-5i      -2.638223466492795E-4-7.220671545251787E-5i       -2.464322830185979E-4-6.369525875328584E-5i       -2.3100311848367076E-4-4.160301126375144E-5i      -2.4069360049549328E-4+1.072284630108263E-6i      -3.064054115365696E-4+8.368575296382764E-5i       -3.4150549637200787E-4+1.21913307856281E-4i       -2.400733597734382E-4+1.1705908231934358E-4i      -2.2520092704074872E-4+7.699366712023308E-5i      -2.154840082222112E-4+1.739409563945032E-5i       -2.208430640663284E-4-2.9467811504277717E-5i      -2.320070836576043E-4-5.636923985850373E-5i       -2.3819740252232588E-4-7.062194228781887E-5i      -2.3480837678086866E-4-7.413608012569432E-5i      -2.2145775292502562E-4-7.003819734108298E-5i      -2.0300362370761205E-4-5.718541547184162E-5i      -1.9490846697162953E-4-3.208569291262771E-5i      -2.1542774792137983E-4+1.216051626395668E-5i      -2.6506559980774886E-4+7.022267199397864E-5i      -3.065982522603946E-4+1.104577137609914E-4i       -3.5481296069839625E-4+1.1979147727818066E-4i     -3.5307147953097444E-4+8.318901271719005E-5i      -3.275458460571107E-4+6.686418043928067E-6i       -3.4928503769555324E-4-3.745968128353903E-5i      -4.1217200832227314E-4-5.681522118607981E-5i      -5.235028970672706E-4-6.645128758903877E-5i       NaN                                               -2.447190993287637E-4-7.524582055413818E-5i       -3.0790525225170306E-4-6.17326578870447E-5i       -3.109392055701215E-4-3.9048543836407456E-5i      -3.1928180087265106E-4+3.940502475447982E-6i      -3.6431910440244583E-4+8.127749899934787E-5i      -3.927698895837263E-4+1.2241216111603126E-4i
50.5                                              -4.8672944010654114E-4+1.2338504373902632E-4i     -5.176584191678124E-4+8.104030109723937E-5i       -5.275761667770169E-4+2.0729565555916658E-5i      -5.513515564643722E-4-3.0989474364523815E-5i      -6.086199876488346E-4-5.5996159031010715E-5i      -6.44593199703484E-4-7.111202669867481E-5i        -6.525031157426775E-4-7.467138402532942E-5i       -6.401321888470149E-4-7.15366124552724E-5i        -6.028231587075626E-4-5.587411728010684E-5i       -5.612810895495177E-4-2.892640874627851E-5i       -5.328629616550177E-4+1.9978636223291923E-5i      -5.29170482423715E-4+8.1001971462162E-5i          -5.353402667140513E-4+1.2722778536601955E-4i      -3.35365702602059E-4+1.325108215831491E-4i        -3.034274167893471E-4+8.624387254659182E-5i       -2.7005894271008436E-4+2.9254081591673784E-6i     -2.67816181522959E-4-4.65129925199552E-5i         -2.815475111448373E-4-6.974789465412728E-5i       -2.9409675481951596E-4-8.137832952330858E-5i      -2.9880836690189544E-4-8.822115558026621E-5i      -2.8697679331067473E-4-7.872883678383764E-5i      -2.675024826473378E-4-6.936817341257051E-5i       -2.500138785233575E-4-4.531674474869576E-5i       -2.5941102285063396E-4+1.043482979712844E-6i      -3.28478254207815E-4+9.069365549411237E-5i        -3.65624974829765E-4+1.3222101338872502E-4i       -2.9490654886594407E-4+1.205864518476519E-4i      -2.7065448500278094E-4+7.863346247561514E-5i      -2.5271423557179614E-4+1.5194491344578363E-5i     -2.535671113271419E-4-3.4781639100533445E-5i      -2.627731354801119E-4-6.332506736345688E-5i       -2.6784708030363374E-4-7.829550641849024E-5i      -2.630493287855278E-4-8.17179961537155E-5i        -2.475316511219136E-4-7.695656305863829E-5i       -2.26637246710062E-4-6.281039095976549E-5i        -2.1669086058048162E-4-3.543557404471295E-5i      -2.3702082125718105E-4+1.2700076331308635E-5i     -2.883822200681034E-4+7.583074079262543E-5i       -3.3214696809805535E-4+1.1955798547992727E-4i     -3.957292930608524E-4+1.2758160449692163E-4i      -3.8898111632455746E-4+8.826437380263398E-5i      -3.586513218851036E-4+5.444732448423992E-6i       -3.79111086003776E-4-4.236098087507416E-5i        -4.437626529465558E-4-6.348967173550223E-5i       -5.605628509357722E-4-7.47703008240164E-5i        NaN                                               -2.592775913327659E-4-8.017555194743662E-5i       -3.258224325073174E-4-6.649081209530933E-5i       -3.286469424705657E-4-4.217106367635012E-5i       -3.3764721712247966E-4+4.339725128787026E-6i      -3.863548602270868E-4+8.814229483773827E-5i       -4.1712908617530536E-4+1.3277513048293475E-4i
51                                                -5.146253259071682E-4+1.3244900952406327E-4i      -5.433255640917573E-4+8.76504697612717E-5i        -5.513474908626403E-4+2.40238702803644E-5i        -5.745775601627807E-4-3.03377961545529E-5i        -6.320908544638602E-4-5.647342682615931E-5i       -6.681415065968373E-4-7.220287170407608E-5i       -6.754656351975111E-4-7.589123940378885E-5i       -6.617547046512135E-4-7.269205172454118E-5i       -6.223791878471549E-4-5.646118692285096E-5i       -5.788603751912752E-4-2.8334704808308603E-5i      -5.492585936731133E-4+2.3052202563501707E-5i      -5.45417998944958E-4+8.738427007616818E-5i        -5.518441038165273E-4+1.3621061268388092E-4i      -3.5458527219472534E-4+1.4194157938403177E-4i     -3.2070955039225447E-4+9.304850027540532E-5i      -2.8554611367775213E-4+5.16511568158645E-6i       -2.8315396238517347E-4-4.6775914589902976E-5i     -2.9752490420531465E-4-7.098631116700354E-5i      -3.1056212498434255E-4-8.301578106787003E-5i      -3.1533689257006413E-4-9.010033150730137E-5i      -3.024615485375195E-4-8.026449541050654E-5i       -2.8173973225080305E-4-7.060668261302166E-5i      -2.6276294905725215E-4-4.5564350251948524E-5i     -2.714020858613953E-4+3.1001723334860613E-6i      -3.413329379140897E-4+9.760839927485616E-5i       -3.7920290412715756E-4+1.4147249254465417E-4i     -3.135859002149253E-4+1.2952706840919738E-4i      -2.8751237157076447E-4+8.518103201421529E-5i      -2.681094968895291E-4+1.8263440906746935E-5i      -2.687678345650374E-4-3.4258801200309144E-5i      -2.7847407214467285E-4-6.408021304732637E-5i      -2.8397736860584516E-4-7.962424259214328E-5i      -2.7905484521753544E-4-8.314363026248553E-5i      -2.627165423139752E-4-7.822081462074558E-5i       -2.4050478292358415E-4-6.355897324668835E-5i      -2.293285488509468E-4-3.498404216961034E-5i       -2.491603297691858E-4+1.5562890345937708E-5i      -3.0100011115898414E-4+8.207526934923668E-5i      -3.4560624983946204E-4+1.2825855211113507E-4i     -4.173989191287687E-4+1.3671727210008697E-4i      -4.087542881777039E-4+9.514338495253443E-5i       -3.7676708783188995E-4+7.812279511913919E-6i      -3.972286052506182E-4-4.2428240301509215E-5i      -4.630990274329563E-4-6.445297119688467E-5i       -5.821790130679492E-4-7.615199004870714E-5i       NaN                                               -2.731945782466467E-4-8.175865718961628E-5i       -3.4007498605732807E-4-6.762102689751687E-5i      -3.4188829063747485E-4-4.2298056207019806E-5i     -3.5033278595984275E-4+6.528247223562791E-6i      -3.998962893624269E-4+9.487216048744467E-5i       -4.3139440146463615E-4+1.4200891597180554E-4i