% Model:              biconAndDipole_fullFeature_addCablesV1_1.1.22.mph
% Version:            COMSOL 5.6.0.401
% Date:               Jan 2 2022, 12:50
% Table:              Table 1 - Global Evaluation 1 (emw.Vport_1)
% freq (MHz)                                      abs(emw.Vport_1) (V)                              Lumped port voltage (V)
30                                                4.920936549855986E-5                              -2.6600913078180067E-5-4.139991637887644E-5i
35                                                7.412912768649054E-5                              -4.678897947571075E-5-5.749712141648081E-5i
40                                                1.1265881309133015E-4                             -8.118525870543207E-5-7.810865468102321E-5i
42                                                1.3375290899645537E-4                             -1.0108577818105058E-4-8.758713441222694E-5i
44                                                1.593209968677434E-4                              -1.25916733353068E-4-9.761227537878561E-5i
46                                                1.9055537297439613E-4                             -1.5704936944869354E-4-1.0792055283947993E-4i
48                                                2.291528721960556E-4                              -1.9639848963548182E-4-1.1806215356583725E-4i
50                                                2.6560661650713597E-4                             -2.3696072095299154E-4-1.199853801836177E-4i
50.5                                              2.892875097691398E-4                              -2.5918542540706276E-4-1.2849193968879948E-4i
51                                                3.0455842684540594E-4                             -2.751802176054351E-4-1.3050549107671233E-4i
51.5                                              3.2049283406326243E-4                             -2.919627870742702E-4-1.3218694205452465E-4i
52                                                3.3751053476222605E-4                             -3.0992927275156533E-4-1.3363086083375216E-4i
52.5                                              3.5597774493747195E-4                             -3.294377224085226E-4-1.348738000690017E-4i
53                                                3.7665766591728894E-4                             -3.5123595609804197E-4-1.36030512893815E-4i
53.5                                              4.023945782595532E-4                              -3.781037988526233E-4-1.376913719370196E-4i
54                                                4.7624272407253396E-4                             -4.5406971311619146E-4-1.4362391117988437E-4i
54.5                                              4.0533469484275894E-4                             -3.861594610025219E-4-1.2319531452743764E-4i
55                                                4.430515262876085E-4                              -4.245108067975785E-4-1.2682755953596382E-4i
55.5                                              4.7185413308432667E-4                             -4.548594991837719E-4-1.2549565295678442E-4i
56                                                5.002874415768435E-4                              -4.8506872988067723E-4-1.2245754975276216E-4i
56.5                                              5.298222364759362E-4                              -5.165076583776068E-4-1.1803152588035225E-4i
57                                                5.610225766296694E-4                              -5.496954277117313E-4-1.1216625268328288E-4i
57.5                                              5.942348318403125E-4                              -5.849391530004306E-4-1.0469585789047825E-4i
58                                                6.297416492213222E-4                              -6.224753761683078E-4-9.538842082828761E-5i
58.5                                              6.678122705102746E-4                              -6.625139863034889E-4-8.395502722498995E-5i
59                                                7.087233889052393E-4                              -7.052532783003167E-4-7.004752263986932E-5i
59.5                                              7.527698558916184E-4                              -7.50883989020848E-4-5.325120628893673E-5i
60                                                8.002712781667737E-4                              -7.995875178232227E-4-3.307446144654806E-5i
60.5                                              8.515763635800002E-4                              -8.515294681992947E-4-8.936878446251335E-6i
61                                                9.070669397169443E-4                              -9.068497877993268E-4+1.984680064339385E-5i
61.5                                              9.671683053874744E-4                              -9.65654035500824E-4+5.410004313355327E-5i
62                                                0.0010323988012047214                             -0.0010280353294952675+9.481901728294102E-5i
62.5                                              0.001102909002859304                              -0.0010935936623175982+1.4304254726090108E-4i
63                                                0.0011797055257304074                             -0.0011626007936359976+2.0016124019351368E-4i
63.5                                              0.0012630687119275905                             -0.0012343781301174276+2.676811591020653E-4i
64                                                0.0013535680465672738                             -0.0013082396698644635+3.4735489471269187E-4i
64.5                                              0.0014517255077282046                             -0.0013830731944114475+4.4115245515493636E-4i
65                                                0.0015579921856777297                             -0.0014572188837060067+5.512284241614261E-4i
65.5                                              0.001672687031404111                              -0.0015282994787935514+6.798401342572066E-4i
66                                                0.0017959068554047883                             -0.0015930242244244063+8.29189516146299E-4i
66.5                                              0.0019274042779654117                             -0.0016469903398811667+0.001001154369244568i
67                                                0.002066432415808488                              -0.0016845291129053447+0.0011968728407305584i
67.5                                              0.0022115635634129705                             -0.0016986793012787528+0.0014161574864481016i
68                                                0.0023605048354708416                             -0.0016814109450365704+0.001656755960361227i
68.5                                              0.002509956883150605                              -0.0016242473698948481+0.0019135579522619032i
69                                                0.002655587314020956                              -0.001519401953877807+0.0021779719201452845i
69.5                                              0.002792204043782337                              -0.001361409101595978+0.0024378204774359548i
70                                                0.0029141926344239916                             -0.0011489678187924445+0.0026781321218174387i
70.5                                              0.003016207098198616                              -8.864139109814858E-4+0.0028830150255665025i
71                                                0.0030939865831228945                             -5.841042629731813E-4+0.003038350734612619i
71.5                                              0.0031450683110302957                             -2.572561167417374E-4+0.003134529306203073i
72                                                0.0031691588433723915                             7.657717816780142E-5+0.0031682335315297216i
72.5                                              0.0031680430048172795                             4.005594348316797E-4+0.0031426181154475363i
73                                                0.003145092166929495                              7.011098332189336E-4+0.0030659500550799883i
73.5                                              0.0031045701673344654                             9.692396312901572E-4+0.0029493949313443377i
74                                                0.0030509577881372312                             0.0012006170353320471+0.0028047927123881567i
74.5                                              0.002988444317577598                              0.0013947520557536144+0.00264300324294786i
75                                                0.0029206348514498968                             0.0015538233119753036+0.002473002436445597i
75.5                                              0.0028504501240363064                             0.001681551641682003+0.0023016189923562836i
76                                                0.002780171735919788                              0.0017823352193336935+0.0021336907102787795i
76.5                                              0.0027116157741948763                             0.0018607282590274417+0.00197244783274975i
77                                                0.002646595065769328                              0.001921399677031067+0.0018200793178483915i
77.5                                              0.0025895969319177712                             0.001971224501608995+0.0016793707851616047i
78                                                0.002052820704095838                              0.001611720448933053+0.0012713890190085687i
78.5                                              0.0024424334898401887                             0.0019985349477224875+0.0014040439505317481i
79                                                0.002395379807830785                              0.0020180599627537565+0.001290456667421946i
79.5                                              0.0023473956254835273                             0.0020276210272711067+0.0011828014171057046i
80                                                0.002301704140418813                              0.002031447253438978+0.0010821571080560993i
80.5                                              0.0022588221374952983                             0.0020311810663471972+9.882210909262618E-4i
81                                                0.002218782121604369                              0.002027841162293348+9.004744991724913E-4i
81.5                                              0.002181465000995958                              0.002022145449399997+8.183625920343493E-4i
82                                                0.002146685679342137                              0.002014613132669636+7.413456222084593E-4i
82.5                                              0.0021142187478786715                             0.0020056100855593137+6.689163614267634E-4i
83                                                0.00208380106074083                               0.0019953695977531698+6.006055520114363E-4i
83.5                                              0.0020551180874949235                             0.0019839944523085294+5.359816850954611E-4i
84                                                0.0020277689649760467                             0.0019714352730640086+4.7464717363433767E-4i
84.5                                              0.002001190332422219                              0.0019574255382279237+4.1623071591759676E-4i
85                                                0.001974481099161807                              0.0019413158707213515+3.603724476602207E-4i
85.5                                              0.0019459389312505                                0.001921619173841203+3.0668888940128044E-4i
86                                                0.0019115198744640532                             0.0018944808338228927+2.5465781108928627E-4i
86.5                                              0.0018570684939242777                             0.0018459309931418567+2.0308165767617627E-4i
87                                                0.0016437767860491925                             0.0016375805020174953+1.425910998847423E-4i
87.5                                              0.002077611092677206                              0.002073387986290161+1.3240132447602115E-4i
88                                                0.0018891263587129613                             0.001887577299374356+7.648750270929813E-5i
88.5                                              0.001541865052612522                              0.0015415922227047384+2.900447144975646E-5i
89                                                0.002281257500675788                              0.0022812553009485706-3.1680094048061566E-6i
89.5                                              0.0020688409933357368                             0.002068241326096755-4.980836006068339E-5i
90                                                0.0020152452094629333                             0.002013168851628685-9.145725283072401E-5i
90.5                                              0.0019894336827103423                             0.0019850645108541697-1.3177733359622914E-4i
91                                                0.00197435015460684                               0.0019669063804892517-1.7128287534580114E-4i
91.5                                              0.0019650246270377946                             0.001953749622427405-2.1020037518947306E-4i
92                                                0.0019594938600850684                             0.0019436484832703173-2.4869009065919026E-4i
92.5                                              0.001956832499767086                              0.001935686933985768-2.8689636759896366E-4i
93                                                0.0019566326417180457                             0.0019294563319548644-3.249762417713295E-4i
93.5                                              0.00195882559481317                               0.0019248716179310257-3.631349134671091E-4i
94                                                0.00196375843035539                               0.001922232043979536-4.017102710786981E-4i
94.5                                              0.0019727258687503137                             0.0019226985536564512-4.4144945917292815E-4i
95                                                0.00199065556439906                               0.0019307062042026764-4.8485371930741424E-4i
95.5                                              0.002054378744405004                              0.0019787985139258896-5.521127301084184E-4i
96                                                0.0017962048762652403                             0.001727037580974723-4.936528653011188E-4i
96.5                                              0.001921372676920136                              0.0018374377815521747-5.616897386813044E-4i
97                                                0.0019428117710439665                             0.001846219397172544-6.049723259875956E-4i
97.5                                              0.001943981387885502                              0.0018345788600681303-6.429494868466432E-4i
98                                                0.0020279543505531726                             0.0019677720918972606-4.903792841034568E-4i
98.5                                              0.0018381156033325647                             0.0017174873491400849-6.549092889541284E-4i
99                                                0.0024051572399668413                             0.002247910970539991-8.553815625151558E-4i
99.5                                              0.0022118639590977883                             0.0020362899736422846-8.636349441747051E-4i
100                                               0.0022119825957001606                             0.002018366257539232-9.050219080815082E-4i
100.5                                             0.002249282677218557                              0.002034559146263049-9.590837515008015E-4i
101                                               0.0023207541508504423                             0.002080413528255604-0.0010284840203623133i
101.5                                             0.002458171231480643                              0.0021829442852217065-0.0011302035440118538i
102                                               0.0028184798217219128                             0.002477563301128679-0.0013436921501422663i
102.5                                             0.007276890917876622                              0.006266405566866-0.0036993651755708123i
103                                               0.0010178129623490508                             8.766193779691426E-4-5.171863228032464E-4i
103.5                                             0.001618183696850494                              0.0013802026680082924-8.447242579537553E-4i
104                                               0.0018065100653198876                             0.0015233530064788837-9.710171130077012E-4i
104.5                                             0.0019066032251409486                             0.0015886333604281163-0.001054220045461448i
105                                               0.0019745379808824735                             0.0016247132965827493-0.0011220993458043946i
105.5                                             0.002031107719336258                              0.0016490150669363085-0.001185811062760159i
106                                               0.002027072840438909                              0.0016280256498393956-0.0012077072426337767i
106.5                                             0.002092487570850927                              0.0016540036210284201-0.0012817083349149628i
107                                               0.002128334866190339                              0.0016570842806100654-0.001335620076816933i
107.5                                             0.002158725831038029                              0.0016544699647511802-0.0013866601419695657i
108                                               0.002182868250949717                              0.0016455597240063436-0.0014342409127243727i
108.5                                             0.002188123262746756                              0.0016214762038050793-0.0014692509429867241i
109                                               0.0016994984085964464                             0.0015419500478041118-7.14622201515424E-4i
109.5                                             0.002372754825054825                              0.0016984383597643542-0.001656886416717188i
110                                               0.002373519227924397                              0.0016620228917859372-0.0016944832346489406i
110.5                                             0.0023970880192353563                             0.0016419966225341858-0.0017463900090037192i
111                                               0.0024294342009717877                             0.0016260166502864721-0.0018050541237986711i
111.5                                             0.0024788960132450413                             0.0016185548516784317-0.0018775530982079762i
112                                               0.002670902321144719                              0.001696446716667485-0.002062956069964738i
112.5                                             0.0020865199979559755                             0.0012898331606743018-0.001640090277849102i
113                                               0.0021395758558962683                             0.0012836464356012073-0.0017117349886891268i
113.5                                             0.0012224124801923793                             7.161985788526707E-4-9.906320544881934E-4i
114                                               0.0035553668266408017                             0.002000247289347569-0.0029393271429760223i
114.5                                             0.003018446484557022                              0.0016271714804944042-0.002542308429990408i
115                                               0.0036380856624707862                             0.0019019278610079376-0.0031013444986001267i
115.5                                             0.003031912130872195                              0.0014892013685750825-0.0026409790709439698i
116                                               0.0030237854268899645                             0.0014047875852865343-0.002677657586043621i
116.5                                             0.0030392521072656045                             0.001325018286916791-0.0027352111272906355i
117                                               0.003056760900468167                              0.0012377018591362616-0.002794974295145056i
117.5                                             0.0030130484393590977                             0.001118015106448725-0.002797946232449212i
118                                               0.0032185840381662384                             0.0010745809384941974-0.00303390161629599i
118.5                                             0.003209894752431547                              9.363173445854911E-4-0.003070298707278488i
119                                               0.0032258673317778356                             7.88250625763376E-4-0.0031280794416406847i
119.5                                             0.003236254394437663                              6.153652823287593E-4-0.003177210738182397i
120                                               0.003230619715850386                              4.1062458134966335E-4-0.0032044174512120987i
120.5                                             0.0031965849570102203                             1.6750780126281002E-4-0.0031921930586824056i
121                                               0.003114124080394078                              -1.1873070343214418E-4-0.003111859863193195i
121.5                                             0.0029440724787624093                             -4.4615535486089403E-4-0.0029100701296592814i
122                                               0.0025586882519362977                             -7.913767973229034E-4-0.002433230021032901i
122.5                                             0.003406828145358234                              -6.317327804736425E-4-0.003347744271308677i
123                                               0.0019811584662753077                             -0.0010953668948161124-0.0016508059347589094i
123.5                                             9.596148293847261E-4                              -7.229381683541866E-4-6.310475620044583E-4i
124                                               2.678726675925199E-4                              2.4604991499153607E-4+1.0590186672476805E-4i
124.5                                             0.0015376333575474299                             0.0015242405783066136+2.0250185600656202E-4i
125                                               0.0026444134627735087                             0.0026245847308611317-3.232298758289219E-4i
125.5                                             0.0035134743748134697                             0.0033199444558643077-0.0011499873879511672i
126                                               0.0041810993848282125                             0.0036626598374549786-0.002016560185292055i
126.5                                             0.004712750426098384                              0.0037776937701906998-0.002817631338083972i
127                                               0.005163838478962822                              0.0037612209588407668-0.0035381414239108663i
127.5                                             0.005574535215300534                              0.003670242190473148-0.004195803275881346i
128                                               0.005973727569439377                              0.003534446936504591-0.004815922126333999i
128.5                                             0.006402285242600082                              0.003377377981518077-0.005438986513825133i
129                                               0.0069043085200059745                             0.003209843444905435-0.006112804691679974i
129.5                                             0.00767183231271623                               0.0030874894553624414-0.007023134620485541i
130                                               0.011016920093242035                              0.003661358574482398-0.010390716131717983i
130.5                                             0.005249205115599308                              0.001480535861881361-0.0050360865667020815i
131                                               0.006836421638484114                              0.001472537648103064-0.006675948898400355i
131.5                                             0.007383574947195067                              0.0010377958035030356-0.007310277619289032i
132                                               0.00908524753217669                               0.001961116553100963-0.008871062201680022i
132.5                                             0.008997752497906564                              6.299797358526119E-4-0.008975671314503383i
133                                               0.009385101607643146                              -3.7971608284104657E-4-0.009377416908841038i
133.5                                             0.009867892857903435                              -0.0012033013346446726-0.00979425215895037i
134                                               0.010420260807273861                              -0.002141817534384878-0.010197767056616324i
134.5                                             0.010579748973773902                              -0.003065560634305545-0.010125879040629811i
135                                               0.011142436080479394                              -0.00422073495788434-0.010312093784623087i
135.5                                             0.011546470587957549                              -0.005415211407145482-0.010197865877451527i
136                                               0.011855223529463587                              -0.006628874692095268-0.009828750950657257i
136.5                                             0.012038549942815708                              -0.007792036991497254-0.009176646677779772i
137                                               0.01204014235259611                               -0.008801171693173026-0.00821610641959246i
137.5                                             0.011711796937755342                              -0.009467570266389457-0.006894294798033638i
138                                               0.009413707053994731                              -0.008303448363083664-0.0044351579205292565i
138.5                                             0.06387469686704113                               -0.054869708463811444+0.03270003047326918i
139                                               0.009397534199505805                              -0.009107309278741068-0.0023174483235313113i
139.5                                             0.005663159359752322                              -0.005663045571059346-3.589977793048027E-5i
140                                               0.020394498369847098                              0.013781020208209004-0.01503392981820226i
140.5                                             0.016722276972040387                              -0.01636846564433723-0.0034216778895424884i
141                                               0.013065301273376764                              -0.013055010909971578-5.184472052422964E-4i
141.5                                             0.010408927961273759                              -0.010376138723000191+8.255461852874368E-4i
142                                               0.032033074468650974                              -0.03176480114435066-0.0041370603299925365i
142.5                                             0.012490333206902019                              -0.012245051177751744+0.002463157581982913i
143                                               0.010763257450845732                              -0.010348266438839997+0.002959914300104636i
143.5                                             0.009562610254914138                              -0.008995834323714858+0.0032432205764737422i
144                                               0.008334428826218186                              -0.0076532602659775345+0.0033000471451944628i
144.5                                             0.006598506329624416                              -0.005900349919613703+0.002954006873419229i
145                                               0.002244417830022859                              -0.0019615918638391477+0.0010906735329348455i
145.5                                             0.07980189648337196                               -0.07567467251824969+0.025331534134325148i
146                                               0.015415190000776553                              -0.012862231125422358+0.008496534189671558i
146.5                                             0.012436814224213036                              -0.009981801954620784+0.007418758507076261i
147                                               0.012217800731787852                              -0.00934725566997735+0.007867875581232335i
147.5                                             0.00126556213320848                               -4.068407511879559E-4+0.0011983856291628411i
148                                               0.0069739132924357015                             -0.005256193927914593+0.004583436702144486i
148.5                                             0.007201700494074853                              -0.005188257423975026+0.004994644622886198i