% Model:              biconAndDipole_fullFeature_addCablesV1_1.1.22.mph
% Version:            COMSOL 5.6.0.401
% Date:               Jan 2 2022, 12:52
% Table:              Table 11 - s21
% freq (MHz)                                      abs(emw.S12) (1)                                  S12 (1)
30                                                8.201560916426644E-5                              -4.433485513030011E-5-6.899986063146075E-5i
35                                                1.2354854614415092E-4                             -7.798163245951793E-5-9.582853569413469E-5i
40                                                1.8776468848555027E-4                             -1.3530876450905345E-4-1.301810911350387E-4i
42                                                2.2292151499409227E-4                             -1.6847629696841763E-4-1.4597855735371155E-4i
44                                                2.6553499477957235E-4                             -2.0986122225511334E-4-1.6268712563130935E-4i
46                                                3.1759228829066023E-4                             -2.617489490811559E-4-1.798675880657999E-4i
48                                                3.819214536600927E-4                              -3.2733081605913636E-4-1.967702559430621E-4i
50                                                4.4267769417856E-4                                -3.949345349216526E-4-1.9997563363936282E-4i
50.5                                              4.821458496152331E-4                              -4.319757090117713E-4-2.1415323281466581E-4i
51                                                5.075973780756766E-4                              -4.5863369600905856E-4-2.1750915179452056E-4i
51.5                                              5.341547234387708E-4                              -4.866046451237836E-4-2.2031157009087444E-4i
52                                                5.625175579370435E-4                              -5.165487879192755E-4-2.2271810138958694E-4i
52.5                                              5.932962415624533E-4                              -5.49062870680871E-4-2.2478966678166952E-4i
53                                                6.277627765288149E-4                              -5.853932601634033E-4-2.2671752148969166E-4i
53.5                                              6.706576304325887E-4                              -6.301729980877055E-4-2.2948561989503266E-4i
54                                                7.937378734542233E-4                              -7.567828551936524E-4-2.3937318529980726E-4i
54.5                                              6.755578247379316E-4                              -6.435991016708699E-4-2.0532552421239606E-4i
55                                                7.384192104793475E-4                              -7.075180113292975E-4-2.1137926589327304E-4i
55.5                                              7.864235551405444E-4                              -7.580991653062865E-4-2.0915942159464073E-4i
56                                                8.338124026280727E-4                              -8.084478831344622E-4-2.040959162546036E-4i
56.5                                              8.83037060793227E-4                               -8.608460972960114E-4-1.967192098005871E-4i
57                                                9.350376277161157E-4                              -9.161590461862189E-4-1.8694375447213813E-4i
57.5                                              9.903913864005207E-4                              -9.74898588334051E-4-1.744930964841304E-4i
58                                                0.0010495694153688704                             -0.001037458960280513-1.5898070138047936E-4i
58.5                                              0.0011130204508504576                             -0.0011041899771724814-1.3992504537498326E-4i
59                                                0.0011812056481753988                             -0.0011754221305005279-1.1674587106644886E-4i
59.5                                              0.0012546164264860306                             -0.0012514733150347467-8.875201048156121E-5i
60                                                0.0013337854636112896                             -0.0013326458630387047-5.5124102410913445E-5i
60.5                                              0.0014192939393000005                             -0.001419215780332158-1.4894797410418893E-5i
61                                                0.0015117782328615739                             -0.0015114163129988781+3.307800107232309E-5i
61.5                                              0.001611947175645791                              -0.0016094233925013737+9.016673855592213E-5i
62                                                0.0017206646686745357                             -0.0017133922158254458+1.5803169547156835E-4i
62.5                                              0.0018381816714321732                             -0.0018226561038626637+2.3840424543483514E-4i
63                                                0.0019661758762173458                             -0.0019376679893933293+3.3360206698918943E-4i
63.5                                              0.0021051145198793175                             -0.002057296883529046+4.4613526517010886E-4i
64                                                0.00225594674427879                               -0.002180399449774106+5.789248245211532E-4i
64.5                                              0.0024195425128803413                             -0.002305121990685746+7.35254091924894E-4i
65                                                0.002596653642796216                              -0.002428698139510011+9.187140402690435E-4i
65.5                                              0.0027878117190068517                             -0.0025471657979892525+0.0011330668904286777i
66                                                0.002993178092341314                              -0.0026550403740406773+0.0013819825269104984i
66.5                                              0.003212340463275686                              -0.0027449838998019446+0.0016685906154076135i
67                                                0.00344405402634748                               -0.0028075485215089077+0.001994788067884264i
67.5                                              0.003685939272354951                              -0.0028311321687979215+0.0023602624774135025i
68                                                0.003934174725784736                              -0.002802351575060951+0.002761259933935378i
68.5                                              0.004183261471917676                              -0.002707078949824747+0.003189263253769839i
69                                                0.004425978856701594                              -0.0025323365897963446+0.0036299532002421414i
69.5                                              0.004653673406303895                              -0.00226901516932663+0.004063034129059924i
70                                                0.004856987724039985                              -0.0019149463646540744+0.0044635535363623975i
70.5                                              0.005027011830331027                              -0.0014773565183024764+0.004805025042610838i
71                                                0.005156644305204824                              -9.735071049553021E-4+0.0050639178910210315i
71.5                                              0.005241780518383826                              -4.287601945695624E-4+0.005224215510338455i
72                                                0.005281931405620653                              1.2762863027966902E-4+0.005280389219216202i
72.5                                              0.005280071674695466                              6.675990580527995E-4+0.005237696859079227i
73                                                0.005241820278215824                              0.0011685163886982228+0.005109916758466647i
73.5                                              0.005174283612224109                              0.0016153993854835953+0.00491565821890723i
74                                                0.0050849296468953855                             0.0020010283922200786+0.004674654520646928i
74.5                                              0.004980740529295997                              0.002324586759589357+0.0044050054049131i
75                                                0.004867724752416495                              0.0025897055199588397+0.004121670727409328i
75.5                                              0.004750750206727177                              0.002802586069470005+0.0038360316539271396i
76                                                0.004633619559866314                              0.002970558698889489+0.0035561511837979664i
76.5                                              0.0045193596236581274                             0.003101213765045736+0.0032874130545829166i
77                                                0.004410991776282214                              0.0032023327950517783+0.0030334655297473193i
77.5                                              0.004315994886529619                              0.0032853741693483246+0.0027989513086026747i
78                                                0.0034213678401597307                             0.002686200748221755+0.002118981698347615i
78.5                                              0.004070722483066981                              0.003330891579537479+0.002340073250886247i
79                                                0.003992299679717975                              0.0033634332712562613+0.00215076111236991i
79.5                                              0.003912326042472545                              0.0033793683787851775+0.0019713356951761743i
80                                                0.0038361735673646887                             0.003385745422398297+0.0018035951800934988i
80.5                                              0.003764703562492164                              0.0033853017772453287+0.0016470351515437698i
81                                                0.003697970202673948                              0.003379735270488913+0.0015007908319541522i
81.5                                              0.00363577500165993                               0.003370242415666662+0.0013639376533905823i
82                                                0.003577809465570228                              0.0033576885544493932+0.0012355760370140988i
82.5                                              0.003523697913131119                              0.0033426834759321894+0.001114860602377939i
83                                                0.003473001767901384                              0.003325615996255283+0.001001009253352394i
83.5                                              0.003425196812491539                              0.0033066574205142156+8.933028084924352E-4i
84                                                0.0033796149416267444                             0.003285725455106681+7.910786227238962E-4i
84.5                                              0.0033353172207036983                             0.0032623758970465396+6.937178598626613E-4i
85                                                0.003290801831936345                              0.0032355264512022525+6.006207461003679E-4i
85.5                                              0.0032432315520841666                             0.0032026986230686717+5.111481490021341E-4i
86                                                0.0031858664574400887                             0.003157468056371488+4.244296851488105E-4i
86.5                                              0.003095114156540463                              0.003076551655236428+3.384694294602938E-4i
87                                                0.0027396279767486543                             0.0027293008366958255+2.376518331412372E-4i
87.5                                              0.00346268515446201                               0.0034556466438169352+2.2066887412670194E-4i
88                                                0.0031485439311882686                             0.0031459621656239264+1.2747917118216355E-4i
88.5                                              0.0025697750876875368                             0.002569320371174564+4.83407857495941E-5i
89                                                0.0038020958344596465                             0.0038020921682476176-5.280015674676928E-6i
89.5                                              0.0034480683222262282                             0.003447068876827925-8.301393343447232E-5i
90                                                0.0033587420157715556                             0.003355281419381142-1.5242875471787337E-4i
90.5                                              0.0033157228045172372                             0.003308440851423616-2.1962888932704856E-4i
91                                                0.0032905835910114005                             0.0032781773008154196-2.854714589096686E-4i
91.5                                              0.0032750410450629905                             0.0032562493707123416-3.5033395864912176E-4i
92                                                0.0032658231001417804                             0.0032394141387838624-4.1448348443198383E-4i
92.5                                              0.00326138749961181                               0.00322614488997628-4.7816061266493944E-4i
93                                                0.0032610544028634095                             0.0032157605532581075-5.416270696188825E-4i
93.5                                              0.003264709324688617                              0.003208119363218376-6.052248557785152E-4i
94                                                0.0032729307172589834                             0.0032037200732992267-6.695171184644969E-4i
94.5                                              0.00328787644791719                               0.003204497589427419-7.357490986215469E-4i
95                                                0.0033177592739984333                             0.0032178436736711273-8.080895321790238E-4i
95.5                                              0.0034239645740083403                             0.003297997523209816-9.201878835140306E-4i
96                                                0.002993674793775401                              0.002878395968291205-8.227547755018646E-4i
96.5                                              0.0032022877948668935                             0.003062396302586958-9.361495644688408E-4i
97                                                0.003238019618406611                              0.003077032328620907-0.0010082872099793259i
97.5                                              0.00323996897980917                               0.003057631433446884-0.0010715824780777386i
98                                                0.003379923917588621                              0.003279620153162101-8.172988068390946E-4i
98.5                                              0.0030635260055542745                             0.002862478915233475-0.001091515481590214i
99                                                0.0040085953999447355                             0.0037465182842333186-0.0014256359375252596i
99.5                                              0.003686439931829647                              0.003393816622737141-0.0014393915736245085i
100                                               0.0036866376595002673                             0.0033639437625653866-0.0015083698468025138i
100.5                                             0.0037488044620309284                             0.0033909319104384154-0.0015984729191680026i
101                                               0.003867923584750737                              0.0034673558804260065-0.0017141400339371888i
101.5                                             0.0040969520524677385                             0.003638240475369511-0.00188367257335309i
102                                               0.004697466369536521                              0.004129272168547799-0.0022394869169037775i
102.5                                             0.01212815152979437                               0.010444009278110001-0.006165608625951354i
103                                               0.001696354937248418                              0.0014610322966152377-8.619772046720772E-4i
103.5                                             0.002696972828084157                              0.002300337780013821-0.001407873763256259i
104                                               0.00301085010886648                               0.0025389216774648064-0.0016183618550128355i
104.5                                             0.003177672041901581                              0.002647722267380194-0.0017570334091024133i
105                                               0.003290896634804122                              0.0027078554943045824-0.0018701655763406575i
105.5                                             0.003385179532227097                              0.0027483584448938477-0.0019763517712669317i
106                                               0.0033784547340648483                             0.0027133760830656594-0.0020128454043896278i
106.5                                             0.0034874792847515443                             0.0027566727017140336-0.0021361805581916046i
107                                               0.003547224776983898                              0.002761807134350109-0.002226033461361555i
107.5                                             0.0035978763850633816                             0.0027574499412519674-0.002311100236615943i
108                                               0.0036381137515828616                             0.002742599540010573-0.002390401521207288i
108.5                                             0.003646872104577927                              0.0027024603396751325-0.00244875157164454i
109                                               0.002832497347660744                              0.0025699167463401865-0.0011910370025257067i
109.5                                             0.003954591375091375                              0.002830730599607257-0.0027614773611953137i
110                                               0.0039558653798739945                             0.002770038152976562-0.002824138724414901i
110.5                                             0.0039951466987255945                             0.0027366610375569767-0.002910650015006199i
111                                               0.004049057001619646                              0.0027100277504774535-0.003008423539664452i
111.5                                             0.004131493355408402                              0.002697591419464053-0.0031292551636799603i
112                                               0.004451503868574532                              0.0028274111944458086-0.003438260116607897i
112.5                                             0.003477533329926626                              0.0021497219344571695-0.0027334837964151705i
113                                               0.003565959759827114                              0.002139410726002012-0.0028528916478152114i
113.5                                             0.0020373541336539654                             0.0011936642980877846-0.001651053424146989i
114                                               0.00592561137773467                               0.0033337454822459484-0.004898878571626704i
114.5                                             0.00503074414092837                               0.002711952467490674-0.00423718071665068i
115                                               0.006063476104117978                              0.003169879768346563-0.0051689074976668786i
115.5                                             0.005053186884786991                              0.002482002280958471-0.004401631784906617i
116                                               0.005039642378149941                              0.002341312642144224-0.004462762643406035i
116.5                                             0.005065420178776007                              0.002208363811527985-0.004558685212151059i
117                                               0.005094601500780279                              0.002062836431893769-0.004658290491908427i
117.5                                             0.00502174739893183                               0.0018633585107478753-0.004663243720748687i
118                                               0.005364306730277064                              0.0017909682308236625-0.00505650269382665i
118.5                                             0.005349824587385911                              0.0015605289076424853-0.005117164512130813i
119                                               0.0053764455529630596                             0.00131375104293896-0.005213465736067808i
119.5                                             0.005393757324062772                              0.0010256088038812655-0.005295351230303995i
120                                               0.005384366193083977                              6.84374302249439E-4-0.005340695752020165i
120.5                                             0.005327641595017034                              2.7917966877135004E-4-0.005320321764470676i
121                                               0.005190206800656797                              -1.9788450572024032E-4-0.005186433105321992i
121.5                                             0.004906787464604016                              -7.435922581014901E-4-0.004850116882765469i
122                                               0.00426448041989383                               -0.0013189613288715058-0.004055383368388168i
122.5                                             0.00567804690893039                               -0.001052887967456071-0.005579573785514462i
123                                               0.0033019307771255126                             -0.0018256114913601873-0.0027513432245981823i
123.5                                             0.0015993580489745435                             -0.0012048969472569777-0.0010517459366740972i
124                                               4.464544459875332E-4                              4.1008319165256014E-4+1.7650311120794677E-4i
124.5                                             0.00256272226257905                               0.0025404009638443563+3.3750309334427004E-4i
125                                               0.004407355771289181                              0.004374307884768553-5.387164597148699E-4i
125.5                                             0.005855790624689116                              0.005533240759773846-0.0019166456465852788i
126                                               0.006968498974713687                              0.006104433062424965-0.0033609336421534246i
126.5                                             0.007854584043497306                              0.006296156283651166-0.004696052230139954i
127                                               0.008606397464938036                              0.006268701598067945-0.005896902373184777i
127.5                                             0.00929089202550089                               0.006117070317455247-0.006993005459802243i
128                                               0.009956212615732294                              0.005890744894174319-0.008026536877223333i
128.5                                             0.010670475404333472                              0.005628963302530128-0.00906497752304189i
129                                               0.011507180866676625                              0.005349739074842392-0.010188007819466624i
129.5                                             0.012786387187860382                              0.005145815758937403-0.0117052243674759i
130                                               0.018361533488736727                              0.006102264290803997-0.017317860219529975i
130.5                                             0.008748675192665515                              0.0024675597698022686-0.008393477611170137i
131                                               0.011394036064140191                              0.002454229413505107-0.011126581497333926i
131.5                                             0.01230595824532511                               0.0017296596725050594-0.012183796032148387i
132                                               0.015142079220294482                              0.0032685275885016058-0.014785103669466705i
132.5                                             0.014996254163177607                              0.00104996622642102-0.014959452190838973i
133                                               0.015641836012738577                              -6.328601380684109E-4-0.01562902818140173i
133.5                                             0.016446488096505726                              -0.0020055022244077876-0.016323753598250616i
134                                               0.017367101345456434                              -0.003569695890641464-0.016996278427693873i
134.5                                             0.017632914956289835                              -0.005109267723842575-0.01687646506771635i
135                                               0.018570726800798992                              -0.007034558263140566-0.017186822974371813i
135.5                                             0.019244117646595917                              -0.00902535234524247-0.01699644312908588i
136                                               0.01975870588243931                               -0.011048124486825447-0.016381251584428762i
136.5                                             0.020064249904692848                              -0.012986728319162089-0.015294411129632954i
137                                               0.020066903920993518                              -0.014668619488621712-0.013693510699320767i
137.5                                             0.01951966156292557                               -0.015779283777315762-0.011490491330056063i
138                                               0.015689511756657885                              -0.013839080605139439-0.007391929867548761i
138.5                                             0.10645782811173522                               -0.09144951410635241+0.054500050788781965i
139                                               0.015662556999176343                              -0.01517884879790178-0.0038624138725521853i
139.5                                             0.009438598932920537                              -0.00943840928509891-5.983296321746712E-5i
140                                               0.03399083061641184                               0.022968367013681674-0.025056549697003768i
140.5                                             0.027870461620067316                              -0.02728077607389539-0.0057027964825708145i
141                                               0.021775502122294607                              -0.021758351516619298-8.640786754038273E-4i
141.5                                             0.0173482132687896                                -0.017293564538333653+0.0013759103088123946i
142                                               0.053388457447751614                              -0.052941335240584426-0.00689510054998756i
142.5                                             0.020817222011503368                              -0.020408418629586242+0.0041052626366381885i
143                                               0.01793876241807622                               -0.017247110731399996+0.004933190500174394i
143.5                                             0.015937683758190227                              -0.014993057206191429+0.0054053676274562375i
144                                               0.013890714710363643                              -0.012755433776629225+0.0055000785753241055i
144.5                                             0.010997510549374027                              -0.009833916532689505+0.0049233447890320485i
145                                               0.0037406963833714318                             -0.0032693197730652465+0.001817789221558076i
145.5                                             0.13300316080561994                               -0.12612445419708282+0.042219223557208585i
146                                               0.025691983334627588                              -0.02143705187570393+0.014160890316119263i
146.5                                             0.020728023707021724                              -0.01663633659103464+0.012364597511793769i
147                                               0.02036300121964642                               -0.015578759449962253+0.013113125968720558i
147.5                                             0.0021092702220141335                             -6.780679186465931E-4+0.0019973093819380685i
148                                               0.01162318882072617                               -0.00876032321319099+0.007639061170240811i
148.5                                             0.012002834156791422                              -0.008647095706625044+0.00832440770481033i
149                                               0.011831995720118765                              -0.0082137304225442+0.00851649900291667i