% Model:              biconAndDipole_fullFeature_addCablesV1_1.1.22.mph
% Version:            COMSOL 5.6.0.401
% Date:               Jan 2 2022, 12:52
% Table:              Table 8 - s22
% freq (MHz)                                      abs(emw.S22) (1)                                  S22 (1)
30                                                0.9996012986642694                                0.9993730005536001-0.021362632229853223i
35                                                0.9996009883395918                                0.999289546253499-0.024950724197202907i
40                                                0.9996009312341145                                0.9991930785300095-0.02855194462433629i
42                                                0.9996008974369894                                0.9991507194876638-0.029996564871972393i
44                                                0.999600862496955                                 0.9991061892973132-0.03144370863078375i
46                                                0.9996008172228338                                0.9990594617033601-0.03289355215767064i
48                                                0.9996007612957625                                0.9990105196890827-0.034346230267915445i
50                                                0.9996007020384555                                0.9989593532450315-0.03580187257730345i
50.5                                              0.9996006811428904                                0.9989462058029478-0.03616627784587492i
51                                                0.9996006701771097                                0.9989329308623016-0.03653080148832071i
51.5                                              0.9996006481180484                                0.9989195005847799-0.03689562398816993i
52                                                0.9996006251314635                                0.9989059290376153-0.03726063199559751i
52.5                                              0.999600600300355                                 0.9988922139643609-0.037625855501336875i
53                                                0.9996005524738093                                0.9988783293617803-0.03799141531140262i
53.5                                              0.9996005036156953                                0.998864300402057-0.03835721850005474i
54                                                0.9996001315833927                                0.9988497549758019-0.038724540621117035i
54.5                                              0.9996004753732625                                0.9988359466504652-0.03908787593770563i
55                                                0.9996004257893316                                0.9988214769409609-0.03945463774628397i
55.5                                              0.9996003924942595                                0.9988068949424981-0.0398212416933876i
56                                                0.9996003453696308                                0.9987921580095922-0.040188002707612476i
56.5                                              0.9996002944005761                                0.9987772739241508-0.04055497082183855i
57                                                0.9996002380869194                                0.9987622405045249-0.04092215690561401i
57.5                                              0.9996001750950868                                0.9987470556990413-0.04128957232309634i
58                                                0.9996001046186913                                0.9987317182512977-0.04165722161293535i
58.5                                              0.9996000256298603                                0.9987162267116564-0.04202510847158731i
59                                                0.999599936850474                                 0.9987005793795535-0.04239323647016917i
59.5                                              0.9995998367940488                                0.9986847743511822-0.0427616089245637i
60                                                0.9995997239484996                                0.9986688097430874-0.043130227964174955i
60.5                                              0.9995995978392651                                0.9986526849642988-0.043499089806770995i
61                                                0.9995994582842581                                0.9986363998578256-0.04386818757577517i
61.5                                              0.9995992950853114                                0.9986199422669583-0.04423755917530239i
62                                                0.9995990858607449                                0.9986032845360059-0.04460731517966258i
62.5                                              0.9995988638167919                                0.9985864744783811-0.04497712232523023i
63                                                0.9995986095439225                                0.998569477413494-0.04534731502839856i
63.5                                              0.9995983146171047                                0.9985522905272962-0.04571776096930356i
64                                                0.9995979732419037                                0.9985349074086629-0.046088467057331314i
64.5                                              0.9995975781123535                                0.9985173203136111-0.04645943609007845i
65                                                0.9995971210245866                                0.9984995208613121-0.04683066517114901i
65.5                                              0.9995965933204904                                0.998481500363371-0.04720214836256423i
66                                                0.9995959864686011                                0.9984632504335739-0.047573876211196804i
66.5                                              0.999595293049807                                 0.9984447640100776-0.047945835149570855i
67                                                0.9995945082945505                                0.9984260369274205-0.048318006974931514i
67.5                                              0.9995936322667526                                0.9984070701124171-0.048690368840034665i
68                                                0.9995926726431502                                0.9983878723308315-0.04906289417259645i
68.5                                              0.9995916477279655                                0.9983684630932026-0.04943555510384728i
69                                                0.9995905888802098                                0.9983488748729331-0.04980832679214529i
69.5                                              0.9995895410495944                                0.9983291533302919-0.05018119355457166i
70                                                0.9995885599843619                                0.9983093541541547-0.05055415571369783i
70.5                                              0.9995877053673036                                0.9982895358893786-0.05092723490668245i
71                                                0.9995870307932445                                0.9982697497995109-0.05130047529289367i
71.5                                              0.9995865734545931                                0.9982500297364132-0.05167393890487662i
72                                                0.9995863472568428                                0.9982303857115626-0.05204769605297151i
72.5                                              0.9995863418800639                                0.9982108035395977-0.05242181387551065i
73                                                0.9995865276308126                                0.9981912501940099-0.05279634700568679i
73.5                                              0.9995868635870351                                0.9981716822352686-0.05317133287195003i
74                                                0.9995873058904631                                0.9981520541453623-0.05354679171292841i
74.5                                              0.9995878139853787                                0.9981323244249077-0.05392272995869715i
75                                                0.9995883540884508                                0.9981124588438962-0.05429914483534581i
75.5                                              0.9995889002948799                                0.998092431322796-0.05467602883236087i
76                                                0.9995894342688453                                0.9980722234563504-0.05505337289219516i
76.5                                              0.9995899441975353                                0.9980518233621639-0.05543116834680417i
77                                                0.9995904173063468                                0.998031217193251-0.05580942463808692i
77.5                                              0.9995908181455073                                0.9980103633257494-0.05618824089798781i
78                                                0.9995934774690723                                0.9979922861956556-0.05655543203514176i
78.5                                              0.9995918017209037                                0.9979683882185845-0.0569461691779439i
79                                                0.9995920930844079                                0.997946915445972-0.057326316022726156i
79.5                                              0.9995923931071069                                0.9979252875141251-0.05770678380782919i
80                                                0.9995926706062233                                0.9979034663579606-0.05808768337994044i
80.5                                              0.9995929243530643                                0.9978814478697366-0.058469055183995165i
81                                                0.9995931552462066                                0.9978592306057359-0.058850929559317325i
81.5                                              0.9995933648680018                                0.9978368133925863-0.05923334303129376i
82                                                0.9995935550360796                                0.9978141945605612-0.05961634342297898i
82.5                                              0.999593727664589                                 0.9977913714093103-0.059999996062634856i
83                                                0.9995938847462892                                0.9977683395492546-0.060384393805857875i
83.5                                              0.9995940283953484                                0.9977450918178297-0.06076967465003672i
84                                                0.9995941609591821                                0.9977216162543479-0.061156055158120136i
84.5                                              0.9995942852513275                                0.9976978919222497-0.06154389946218478i
85                                                0.9995944050262292                                0.9976738792048072-0.061933878549409085i
85.5                                              0.9995945259185546                                0.9976494932746973-0.0623274001950955i
86                                                0.9995946545733321                                0.9976245070659417-0.06272811453420067i
86.5                                              0.9995948044522948                                0.9975980847911128-0.06314930173109684i
87                                                0.9995940801220822                                0.9975606034531892-0.06372728970559323i
87.5                                              0.9995926972802998                                0.9975635429616538-0.0636595492435944i
88                                                0.9995945269360915                                0.9975312506075147-0.06419207382532732i
88.5                                              0.9995952467381721                                0.9974972048648253-0.0647300825614176i
89                                                0.9995918424881008                                0.9974872525724371-0.0648307991948828i
89.5                                              0.9995936020327985                                0.9974580763144562-0.06530509336927186i
90                                                0.9995939359368071                                0.9974314101314538-0.06571619925724025i
90.5                                              0.9995940729624435                                0.9974050903438748-0.06611653694631699i
91                                                0.9995941399188725                                0.9973787842671775-0.06651319608827506i
91.5                                              0.9995941771848371                                0.9973523953886766-0.06690828404839234i
92                                                0.9995941801931065                                0.9973258485855939-0.06730287377930999i
92.5                                              0.9995941732576954                                0.9972991472341148-0.06769728308316952i
93                                                0.9995941513407179                                0.9972722624655147-0.06809186376861466i
93.5                                              0.9995941150525426                                0.997245180812534-0.06848681766480469i
94                                                0.9995940608797642                                0.9972178867374026-0.06888231207709627i
94.5                                              0.9995939810257781                                0.9971903594981714-0.06927852356157307i
95                                                0.9995938492346215                                0.9971625600683642-0.06967562145824782i
95.5                                              0.9995933451322957                                0.9971341033460596-0.0700745001910304i
96                                                0.999594469491845                                 0.9971074490861758-0.07046870522113038i
96.5                                              0.9995941179066347                                0.9970785733044227-0.07087114512098683i
97                                                0.9995939721894286                                0.9970497549242022-0.0712733852362039i
97.5                                              0.9995939274384773                                0.9970207343937828-0.07167757641523519i
98                                                0.9995923405411659                                0.9969897773007208-0.07208488902970678i
98.5                                              0.999593686853533                                 0.9969609935561805-0.07250045603244369i
99                                                0.9995893422880572                                0.9969285337461609-0.07288588216246372i
99.5                                              0.9995920869565833                                0.9968998027832483-0.07331523386676285i
100                                               0.9995921300002735                                0.9968682087429859-0.07374415743660201i
100.5                                             0.9995918477172324                                0.996835105794221-0.07418648043259042i
101                                               0.9995912703455736                                0.9967994556603402-0.07465623179833684i
101.5                                             0.9995900528700762                                0.9967580240496992-0.07519119156750309i
102                                               0.9995861174356695                                0.9966959915914176-0.07595726769517808i
102.5                                             0.9994430416036153                                0.996155310037564-0.08099994872745661i
103                                               0.9995941328899618                                0.9967880112239077-0.07484711877100765i
103.5                                             0.9995945875846032                                0.9967117190472273-0.07586230053428282i
104                                               0.9995940500921034                                0.9966666213424714-0.07644547652619745i
104.5                                             0.9995936277777016                                0.9966284661639164-0.07693582472129294i
105                                               0.9995932846535637                                0.9965928267474032-0.07739168172433532i
105.5                                             0.9995929702126811                                0.9965582626882638-0.07783145357989513i
106                                               0.9995929655862558                                0.9965245368053531-0.07826202396055054i
106.5                                             0.9995925623362578                                0.9964904916830648-0.07868920296463328i
107                                               0.9995923215199368                                0.9964566430333007-0.07911363849818717i
107.5                                             0.9995921016405886                                0.996422701352969-0.07953722330268397i
108                                               0.9995919004323605                                0.9963885622730588-0.07996124299562112i
108.5                                             0.9995917103791135                                0.9963540695683937-0.08038753331917887i
109                                               0.9995623619306185                                0.9962873261297082-0.08084849523419338i
109.5                                             0.9995904629605034                                0.9962838396124744-0.08123795029799115i
110                                               0.9995905193563811                                0.9962480999726608-0.081675759488498i
110.5                                             0.999590314972395                                 0.9962112990714959-0.08212091931350056i
111                                               0.9995900052347121                                0.9961729750711088-0.08258076230641032i
111.5                                             0.9995894727418351                                0.9961315793047723-0.08307220189738541i
112                                               0.9995867347913683                                0.9960762638733869-0.08370016080572465i
112.5                                             0.9995902009073168                                0.996063596451812-0.08389208290066287i
113                                               0.9995895858181032                                0.9959856303603056-0.08480544906898273i
113.5                                             0.9995700478175679                                0.995729760354767-0.08753584887263735i
114                                               0.99956989649787                                  0.996143953254932-0.08268737738251392i
114.5                                             0.9995839414203407                                0.9960127018179785-0.08442010283501077i
115                                               0.999568862177377                                 0.9959635559191183-0.08482043100292148i
115.5                                             0.9995849575902725                                0.9959088541989631-0.08564835998929227i
116                                               0.9995851426657033                                0.9958653721266773-0.08615461703825929i
116.5                                             0.9995850330016975                                0.9958241775262661-0.08662820357793696i
117                                               0.9995848539565543                                0.9957838445931557-0.08708854750551197i
117.5                                             0.9995846643879528                                0.9957418140721661-0.08756563816844991i
118                                               0.9995832240863431                                0.9957075454810934-0.08793807904920847i
118.5                                             0.9995834521475353                                0.9956676385019978-0.08839135391563434i
119                                               0.9995832999796126                                0.9956284327587445-0.08883016087173584i
119.5                                             0.9995831652522279                                0.9955893514151861-0.08926560146188356i
120                                               0.9995831758980296                                0.9955503606012656-0.08969952644847877i
120.5                                             0.9995834398503798                                0.995511490212632-0.09013282464087354i
121                                               0.9995841217880947                                0.9954728534130625-0.0905660789066869i
121.5                                             0.9995855114490806                                0.9954346893551993-0.09099985674295277i
122                                               0.9995884133648256                                0.9953977064677082-0.09143523441231834i
122.5                                             0.9995811858332515                                0.9953507326792235-0.09186656642512686i
123                                               0.9995919410628907                                0.995320637538437-0.09230859725917667i
123.5                                             0.9995960805059908                                0.995283507876819-0.09275269867423507i
124                                               0.9995972101207464                                0.9952427688621589-0.09320093083635511i
124.5                                             0.9995939729480262                                0.9951972401170294-0.09365128945971378i
125                                               0.9995874892313334                                0.995148235604577-0.0941017417527354i
125.5                                             0.9995799984102978                                0.9950979750661125-0.09455259510586307i
126                                               0.9995728006922907                                0.995047581710202-0.0950057578071393i
126.5                                             0.9995661632511006                                0.9949970958655964-0.09546357386749758i
127                                               0.9995598941471574                                0.9949460502357633-0.09592882313324995i
127.5                                             0.9995536683786798                                0.9948937117501402-0.09640559262462327i
128                                               0.9995471240099763                                0.9948389468703861-0.09690161457084157i
128.5                                             0.9995395462678417                                0.9947795944559988-0.09743132456905951i
129                                               0.9995298150472568                                0.9947100995579131-0.09803911977312867i
129.5                                             0.9995126500572119                                0.9946082241838208-0.09889397357926857i
130                                               0.9993926031834195                                0.994157813883594-0.10215584365039959i
130.5                                             0.9995492632996235                                0.9948434018983607-0.09687794105015188i
131                                               0.9995302068871669                                0.9946644631165732-0.0985050267393586i
131.5                                             0.9995198054374881                                0.9945798113727521-0.09925139934295563i
132                                               0.9994720842082487                                0.994473925038044-0.09983015341572625i
132.5                                             0.9994831442017124                                0.9944309012954741-0.10036801329114795i
133                                               0.9994737599101546                                0.9943701315332739-0.10087536004119599i
133.5                                             0.9994608277168555                                0.9943062473795399-0.10137570005913213i
134                                               0.9994449872614816                                0.9942382654903608-0.10188500378771098i
134.5                                             0.9994400743901359                                0.9941905806578611-0.10230127872194632i
135                                               0.9994234001829491                                0.9941199182225258-0.1028237376605514i
135.5                                             0.9994105488021303                                0.9940547105953413-0.10332800878845713i
136                                               0.9994003346450625                                0.993990693018017-0.10384378210670613i
136.5                                             0.9993939497186366                                0.9939273353584201-0.10438734962402045i
137                                               0.9993932863358126                                0.9938629988005198-0.10499181105368943i
137.5                                             0.9994024567809421                                0.9937909081448988-0.10575869471736134i
138                                               0.9994590737914634                                0.9936733236445816-0.10738606083296148i
138.5                                             0.9396254924918606                                0.931324436194191-0.1246228738560609i
139                                               0.9994442426473908                                0.9939234482810386-0.10490459054848952i
139.5                                             0.9995340126436596                                0.9938632573036014-0.10632059167165518i
140                                               0.9982863250840126                                0.9923416530862162-0.10878249123759941i
140.5                                             0.9991985703260979                                0.9934549571831119-0.10698145161671403i
141                                               0.9993565074543042                                0.9935251907299429-0.10780131899144484i
141.5                                             0.9994429961460769                                0.9935261891809564-0.10859103994811702i
142                                               0.9980559275295339                                0.9923454789870064-0.10661184179483499i
142.5                                             0.9993769189462279                                0.9933750025972338-0.10936329520182402i
143                                               0.9994331515303735                                0.9933452372004463-0.11014474163174327i
143.5                                             0.9994667716919038                                0.9932916495243337-0.11093027856029349i
144                                               0.9994964951339044                                0.9932189308974179-0.11184542499337746i
144.5                                             0.9995301538997543                                0.9931083113928661-0.11312121992480656i
145                                               0.9995701830967361                                0.9928265226410474-0.11591396325088778i
145.5                                             0.9891793910008662                                0.986393957407057-0.0741810512980863i
146                                               0.9992513584072777                                0.9931888158395893-0.10990565667855438i
146.5                                             0.9993734918222446                                0.9930027347629898-0.11266297044818692i
147                                               0.9993759104003284                                0.992696146749101-0.11535410923747944i
147.5                                             0.9993211481364395                                0.9912521385476619-0.12673576818490723i
148                                               0.999499244940408                                 0.9938125989132028-0.1064671727709113i
148.5                                             0.9995158401380203                                0.9933325858509316-0.11100580423344532i
149                                               0.9995224728367036                                0.9931569629172379-0.11262513358308186i
149.5                                             0.999528813464491                                 0.9930434754815045-0.11367719537949478i
150                                               0.9995359873517958                                0.9929529847335457-0.11452755179463368i
150.5                                             0.999550467903628                                 0.9928777910992008-0.11530320823087852i
151                                               0.9994147894163016                                0.9926757900398914-0.11586499545897294i
151.5                                             0.9995155858407186                                0.9926899867241815-0.11661044805702162i
152                                               0.9995268542799085                                0.9926200260763575-0.1173005381865777i