% Model:              biconAndDipole_fullFeature_addCablesV1_1.1.22.mph
% Version:            COMSOL 5.6.0.401
% Date:               Jan 2 2022, 12:52
% Table:              Table 10 - tickle Impedance
% freq (MHz)                                      abs(emw.Zport_2) (Ω)                              Lumped port impedance (Ω)
30                                                4677.797685307217                                 89.25270942230993-4676.9461338063675i
35                                                4005.1230051936122                                65.48146424402341-4004.587677223658i
40                                                3499.9033881816104                                50.012670364898526-3499.5460361892783i
42                                                3331.310976822468                                 45.31513161003323-3331.002756400095i
44                                                3177.948533960909                                 41.243285111241974-3177.6808958637625i
46                                                3037.8255472414803                                37.69148828008625-3037.591711732212i
48                                                2909.2874976694957                                34.57488938580924-2909.082040974437i
50                                                2790.945005865988                                 31.824674821245342-2790.7635542698386i
50.5                                              2762.8092977362367                                31.18805207743298-2762.633258517209i
51                                                2735.225794806348                                 30.569425880933657-2735.0549644888906i
51.5                                              2708.165069547846                                 29.969361592430296-2707.999239528112i
52                                                2681.62061883792                                  29.386592232317508-2681.4595972293973i
52.5                                              2655.575692348307                                 28.820482082096202-2655.4192960065166i
53                                                2630.007890562742                                 28.27169028078393-2629.855930645432i
53.5                                              2604.910635776105                                 27.738198433786067-2604.762947511178i
54                                                2580.184963855063                                 27.239094144084614-2580.0411778601447i
54.5                                              2556.186901101527                                 26.712457805905863-2556.0473231067135i
55                                                2532.409265675763                                 26.22117828971244-2532.27351182481i
55.5                                              2509.0793892783618                                25.74255833181419-2508.9473295372322i
56                                                2486.1651550667275                                25.277612953796215-2486.036649076462i
56.5                                              2463.6525442358443                                24.82517650366093-2463.5274647000206i
57                                                2441.5304423447556                                24.384886510502533-2441.4086667754023i
57.5                                              2419.7881127640185                                23.956384175653568-2419.6695233711725i
58                                                2398.415603706582                                 23.539302157675298-2398.3000874279965i
58.5                                              2377.403355450821                                 23.133301242673806-2377.2908036002746i
59                                                2356.7421414772057                                22.738069255775198-2356.6324494118903i
59.5                                              2336.423061282979                                 22.35331708635617-2336.3161281192583i
60                                                2316.4375766769854                                21.97876831142043-2316.33330511493i
60.5                                              2296.777746665749                                 21.61410710818596-2296.6760433184545i
61                                                2277.4360411439848                                21.259017621698387-2277.3368164747494i
61.5                                              2258.4028433212416                                20.913664742532042-2258.306007021304i
62                                                2239.6652239153536                                20.57873947361734-2239.5706799959426i
62.5                                              2221.2329376858456                                20.252539866629473-2221.140607455872i
63                                                2203.082264652188                                 19.935423262773362-2202.9920661964143i
63.5                                              2185.213132892212                                 19.627602040840095-2185.1249834741084i
64                                                2167.6187092489163                                19.329023850018366-2167.5325274428856i
64.5                                              2150.2925665786856                                19.039705698268424-2150.2082716542773i
65                                                2133.2287339018294                                18.75970173636813-2133.1462455104115i
65.5                                              2116.42155060937                                  18.489078193006524-2116.3407886896057i
66                                                2099.865671903932                                 18.22788701655918-2099.786556813683i
66.5                                              2083.55607966707                                  17.976124458967064-2083.478532662875i
67                                                2067.4880898191877                                17.73366986733087-2067.412034040924i
67.5                                              2051.6573385190504                                17.5002025938473-2051.5827006504633i
68                                                2036.059732046807                                 17.275101346451113-2035.9864447819848i
68.5                                              2020.6913396802659                                17.057342361338264-2020.6193449856892i
69                                                2005.548218175277                                 16.845429620533636-2005.4774710594304i
69.5                                              1990.6261755649002                                16.637405792293077-1990.5566476673412i
70                                                1975.9205202021462                                16.43099258487785-1975.852202124085i
70.5                                              1961.425881960088                                 16.223877330609756-1961.3587831468444i
71                                                1947.1361979838357                                16.014097622754733-1947.070343407314i
71.5                                              1933.0449187600611                                15.800407373919153-1932.980342649896i
72                                                1919.1453871996619                                15.582487506842932-1919.0821252079961i
72.5                                              1905.4312664189863                                15.360922533798602-1905.3693482120395i
73                                                1891.8968682060056                                15.136968813727773-1891.8363121852865i
73.5                                              1878.5372969149805                                14.912221710421612-1878.4781078160856i
74                                                1865.3484166783142                                14.688301591594177-1865.290585780309i
74.5                                              1852.3267004220788                                14.46663402524528-1852.2702075011964i
75                                                1839.469043196096                                 14.248341269400044-1839.4138592627357i
75.5                                              1826.7725897533446                                14.034222099392153-1826.7186798421387i
76                                                1814.234614882067                                 13.824781150303773-1814.1819405071885i
76.5                                              1801.8524523590522                                13.620281004824937-1801.8009734756167i
77                                                1789.6229094138753                                13.420989253570216-1789.5725844308297i
77.5                                              1777.5399926567957                                13.227830717961318-1777.4907735312772i
78                                                1765.9867706803134                                12.973534733515383-1765.939116055364i
78.5                                              1753.8472384778574                                12.847533664836746-1753.8001815472414i
79                                                1742.1991949582957                                12.668729065820639-1742.1531328265005i
79.5                                              1730.6948528188861                                12.493105957702918-1730.6497611814227i
80                                                1719.3282323386193                                12.321463815255173-1719.284081251871i
80.5                                              1708.0957079573711                                12.153715229540174-1708.0524683827812i
81                                                1696.9940685269169                                11.98971845774946-1696.9517127092456i
81.5                                              1686.0200267123973                                11.829315367612505-1685.9785282657683i
82                                                1675.17008194938                                  11.672343270799374-1675.129415854447i
82.5                                              1664.4403641170115                                11.518636949893487-1664.4005067004714i
83                                                1653.8263850265014                                11.368025883608352-1653.7873139546498i
83.5                                              1643.32260380489                                  11.220327385135583-1643.2842981144356i
84                                                1632.9216034192536                                11.075332941455821-1632.8840436214514i
84.5                                              1622.6123915951637                                10.932780224201865-1622.5755599277174i
85                                                1612.3764790045961                                10.792290411378497-1612.3403600093052i
85.5                                              1602.1772918324427                                10.653207971145674-1602.1418737500946i
86                                                1591.9230573462362                                10.514143720721899-1591.888335685769i
86.5                                              1581.2850824382003                                10.370474433726239-1581.2510759527108i
87                                                1566.9138046674502                                10.200822569349675-1566.8805999425524i
87.5                                              1568.582095855055                                 10.256606815622744-1568.5485626698546i
88                                                1555.5465615877395                                10.042674269103031-1555.5141432854166i
88.5                                              1542.5924245562658                                9.859120621019974-1542.5609180965785i
89                                                1540.1852398755263                                9.909279216873088-1540.1533622713794i
89.5                                              1528.9789979789443                                9.7245586506406-1528.9480727675964i
90                                                1519.3944439345232                                9.595429204061183-1519.364144633369i
90.5                                              1510.1750465079383                                9.476329091971047-1510.145314293361i
91                                                1501.1495794530638                                9.362008023008409-1501.120385811174i
91.5                                              1492.266068628754                                 9.250819430259233-1492.2373946261318i
92                                                1483.4976827749617                                9.142477891119153-1483.4695109427396i
92.5                                              1474.8353158698474                                9.036290243159584-1474.8076330137276i
93                                                1466.2694558914773                                8.932218793194407-1466.2422489983433i
93.5                                              1457.7941940299017                                8.83014742159051-1457.7674508109324i
94                                                1449.404575259256                                 8.730061070685034-1449.378283546489i
94.5                                              1441.0956353008094                                8.63203216616256-1441.0697825239852i
95                                                1432.8627221604156                                8.536510966524572-1432.8372931137278i
95.5                                              1424.6861300305552                                8.449726520962539-1424.6610724039458i
96                                                1416.6986700920618                                8.332755862293864-1416.6741640265611i
96.5                                              1408.6336001918912                                8.245254564418156-1408.6094687196792i
97                                                1400.6637381170933                                8.155195496714775-1400.6399965953278i
97.5                                              1392.7453552984484                                8.064232475946191-1392.7220084639919i
98                                                1384.8532199984038                                8.003698577654164-1384.8300912924392i
98.5                                              1376.8968358016534                                7.886544242061664-1376.874249472523i
99                                                1369.5902232559763                                7.884809411766428-1369.5675264180643i
99.5                                              1361.5524038254243                                7.741681734060066-1361.5303943455394i
100                                               1353.611972884585                                 7.650976228912393-1353.5903500318118i
100.5                                             1345.5190414408837                                7.565004168985356-1345.497774651418i
101                                               1337.0287220114067                                7.480302427396101-1337.007796745797i
101.5                                             1327.4880326813138                                7.395567646774251-1327.4674318006025i
102                                               1314.0561028251934                                7.314951547137361-1314.0357426097657i
102.5                                             1231.8160751742137                                8.604880787312299-1231.7860200068192i
103                                               1333.613475925943                                 7.391185059636809-1333.592993965809i
103.5                                             1315.7177905217532                                7.186536831962622-1315.6981637076974i
104                                               1305.6510352259345                                7.086321476967509-1305.6318048494682i
104.5                                             1297.3046408815921                                7.003262608556791-1297.2857378256158i
105                                               1289.6401248781162                                6.926593454393271-1289.6215235481923i
105.5                                             1282.331032981788                                 6.853597922302262-1282.3127178436853i
106                                               1275.2547446965164                                6.77835359978088-1275.2367300989465i
106.5                                             1268.3100579176353                                6.711338545188454-1268.2923010686327i
107                                               1261.484345575058                                 6.643244774012692-1261.4668530840613i
107.5                                             1254.7448547673782                                6.5760285103876885-1254.727622400272i
108                                               1248.0698670167849                                6.509497073826472-1248.0528912682912i
108.5                                             1241.4300181143851                                6.443462297388678-1241.4132960739162i
109                                               1234.2903182286225                                6.817718088368639-1234.2714889330393i
109.5                                             1228.39070801821                                  6.327891029118299-1228.3744092664106i
110                                               1221.784459530292                                 6.259277867697838-1221.7684260899455i
110.5                                             1215.1390554886198                                6.1945087025475525-1215.123266272072i
111                                               1208.3494315181788                                6.130124397375323-1208.3338819321332i
111.5                                             1201.1759706017472                                6.0653773144608225-1201.1606568436557i
112                                               1192.129523223016                                 6.013510411586481-1192.1143560214618i
112.5                                             1189.397088171632                                 5.936881607057298-1189.3822710919903i
113                                               1176.5410630561182                                5.817986991642018-1176.526678016519i
113.5                                             1139.684946523555                                 5.714194617171538-1139.6706214131675i
114                                               1206.7602305321782                                6.407502287029121-1206.7432195411407i
114.5                                             1181.9236981454135                                5.9502719941452265-1181.9087200376034i
115                                               1176.3065758211433                                6.103064929156812-1176.290743361748i
115.5                                             1164.9145473336241                                5.766719096263975-1164.900273645932i
116                                               1158.0443915745                                   5.696534898853141-1158.0303805804492i
116.5                                             1151.6897998266459                                5.635760155084483-1151.6760105308324i
117                                               1145.5789231942017                                5.578577018597597-1145.56534023391i
117.5                                             1139.3134042583288                                5.520301710758089-1139.300030453666i
118                                               1134.4678325541418                                5.492114084422733-1134.4545384381763i
118.5                                             1128.6279347352884                                5.432911173519853-1128.6148583733172i
119                                               1123.0306570653654                                5.381184028614269-1123.0177645821623i
119.5                                             1117.5306272146788                                5.330392988219009-1117.5179146991i
120                                               1112.1029237486648                                5.278709666917061-1112.090395711869i
120.5                                             1106.735397243013                                 5.2247369604361005-1106.7230645623792i
121                                               1101.4201464299397                                5.166478924896154-1101.408029050664i
121.5                                             1096.1498872164184                                5.100514472591396-1096.1380205050282i
122                                               1090.9120989092555                                5.017363267163683-1090.900560826899i
122.5                                             1085.7602625446416                                5.055603220705523-1085.7484923300992i
123                                               1080.5511786067045                                4.881411376960329-1080.540152614102i
123.5                                             1075.3600169909269                                4.786727829111185-1075.349363406803i
124                                               1070.1671870771563                                4.727736754261944-1070.1567440341698i
124.5                                             1064.994774707602                                 4.7190558544725185-1064.9843194462246i
125                                               1059.8670826633706                                4.746845626221317-1059.8564527189353i
125.5                                             1054.7825263255559                                4.785071774091484-1054.7716724153331i
126                                               1049.7208112808764                                4.8188837149998545-1049.7097503576513i
126.5                                             1044.656503983901                                 4.845234332044907-1044.6452675526434i
127                                               1039.5599009951716                                4.866113975288051-1039.548511947312i
127.5                                             1034.3882312785827                                4.884725825858452-1034.376697562953i
128                                               1029.061539555069                                 4.904159088325963-1029.0498537073338i
128.5                                             1023.432187473231                                 4.930370653468452-1023.4203114075184i
129                                               1017.0466574886951                                4.97013027721321-1017.0345133347023i
129.5                                             1008.1943231574901                                5.059179136360874-1008.1816294465277i
130                                               975.7177030321228                                 5.885771925765023-975.6999506503624i
130.5                                             1029.3165107640802                                4.883854527885221-1029.3049243525902i
131                                               1012.213420277274                                 4.919089218481754-1012.2014674711147i
131.5                                             1004.5533370739159                                4.950370479634705-1004.5411394554505i
132                                               998.6503197021256                                 5.369863455358106-998.6358823953946i
132.5                                             993.283481804257                                  5.202990408337405-993.2698546296463i
133                                               988.2527036680053                                 5.242484305667559-988.2387984011897i
133.5                                             983.3367636182267                                 5.3160271032832-983.3223939985326i
134                                               978.3794327272051                                 5.41480692986512-978.3644485821835i
134.5                                             974.3724582247828                                 5.417450269918275-974.3573977651009i
135                                               969.3783689859907                                 5.519395534387199-969.3626558367486i
135.5                                             964.6092143527969                                 5.5853320268257445-964.5930439726746i
136                                               959.7820474232021                                 5.624120825614912-959.7655691994856i
136.5                                             954.750679811174                                  5.6238634752676875-954.734116264581i
137                                               949.223165844884                                  5.565105908264614-949.206852152266i
137.5                                             942.3110597656469                                 5.40286478889532-942.2955706192879i
138                                               928.0056364247092                                 4.751237640406607-927.9934735637497i
138.5                                             680.035755644876                                  289.2110184942605-615.471864293576i
139                                               950.0680260330901                                 5.113499153091487-950.0542648800771i
139.5                                             937.4329252866999                                 4.187227153003721-937.4235737063308i
140                                               914.8399135923753                                 14.473332920090138-914.7254178910133i
140.5                                             931.2771805958516                                 7.0520313569422735-931.2504797058089i
141                                               924.3098391057564                                 5.5929394787534745-924.2929176920574i
141.5                                             917.6324569232862                                 4.781772820470953-917.61999795545i
142                                               933.320812408673                                  17.07866277687367-933.1645396996926i
142.5                                             911.0505599024117                                 5.264049959153928-911.0353519356564i
143                                               904.6016514994236                                 4.72817387651116-904.5892948002856i
143.5                                             898.1883797727712                                 4.389350539227135-898.1776545654427i
144                                               890.8212457053233                                 4.0811179974408285-890.811897246481i
144.5                                             880.7417860741509                                 3.7275065443140436-880.7338981962982i
145                                               859.4191099692241                                 3.252976490680726-859.4129535469223i
145.5                                             1317.8033674494307                                189.35802966650056-1304.1277743618068i
146                                               906.4065416660928                                 6.246103510140702-906.3850202678921i
146.5                                             884.2016648680479                                 4.9861570921159055-884.1876058806075i
147                                               863.442689386066                                  4.7374028541809325-863.4296930662274i
147.5                                             785.3091639263606                                 4.260826566405392-785.2976049267504i
148                                               936.1007961399266                                 4.481050590072673-936.0900708368899i
148.5                                             897.61966636532                                   3.9870256557223587-897.610811583845i
149                                               884.6391014706643                                 3.82079584901869-884.6308503380969i
149.5                                             876.4051572617968                                 3.7013391739246684-876.3973412576024i
150                                               869.861896766543                                  3.591965234714602-869.8544804920192i
150.5                                             863.9844538153467                                 3.4352405456034036-863.9776244538957i
151                                               859.6451144170225                                 4.407500077400159-859.6338154610504i
151.5                                             854.2025495550962                                 3.613661028191039-854.1949058150605i
152                                               849.152603682664                                  3.489629704157229-849.1454332595656i
152.5                                             844.0864994747591                                 3.4111355193394823-844.0796068796006i
153                                               838.8150081123497                                 3.346393529211429-838.8083329848773i
153.5                                             833.0788063572461                                 3.2874963421871413-833.0723197714674i